1080
Lattice="22.53531 0.0 0.0 0.0 23.419379999999997 0.0 0.0 0.0 22.08" Properties=species:S:1:pos:R:3 ipi_comment="Step:          50  Bead:       0 positions{angstrom}  cell{angstrom}" pbc="T T T"
O        1.10270551       1.31302967       1.35738997
H        1.11804613       1.27768300       0.37914170
H        1.12097608       0.38598558       1.67133718
O        3.35836593       2.60844535       2.28856727
H        2.55007370       2.17600482       1.94580409
H        3.34151493       3.53115570       1.96192770
O        1.12133875       1.30970399       5.99652723
H        0.34234111       1.79255817       5.65257129
H        1.90880662       1.77777437       5.65154387
O        3.37947726       2.57879880       5.04302605
H        3.39158220       2.56995100       4.06429769
H        4.18735036       2.11269696       5.34004817
O        3.37187331       5.22052950       1.38211178
H        3.34336234       5.22349024       0.40343784
H        2.56712026       5.68621921       1.68751511
O        1.11808043       6.52361160       2.31300258
H        1.10517959       6.49794046       3.29146167
H        0.31771786       6.04831509       2.00902925
O        3.37726868       5.17015824       5.97598554
H        3.39987758       4.25363749       5.63215877
H        4.18172559       5.61034841       5.63299081
O        1.13513367       6.50297328       5.07517635
H        0.34278592       6.04679753       5.42459193
H        1.91204646       6.00834167       5.40712056
O        1.13333104       9.10802332       1.38323215
H        0.33257759       9.55936977       1.71957307
H        1.10217708       8.19411890       1.73482055
O        3.39105057      10.41521277       2.28631756
H        2.60335034       9.93541750       1.95788022
H        4.17373838       9.93668211       1.94555457
O        1.14758451       9.11425494       5.97900718
H        1.17236856       8.19296771       5.64942290
H        1.94532157       9.55868413       5.62655925
O        3.39817166      10.41274279       5.04352750
H        3.39942063      10.44481146       4.06518115
H        3.39583725      11.34048750       5.35481482
O        3.38067691      13.01784408       1.36465940
H        3.39829279      12.09992747       1.70421428
H        4.19288571      13.45038621       1.69982965
O        1.12705521      14.32015333       2.28441640
H        1.93473925      13.88140090       1.94791241
H        1.15058450      15.24239802       1.95727905
O        3.38103715      13.01824995       5.97977369
H        3.35961094      13.02761858       6.95817766
H        2.57274173      13.47949792       5.67767426
O        1.11402743      14.30770532       5.05222417
H        1.10170327      14.29558850       4.07398121
H        0.30524688      13.84195098       5.34861775
O        1.13170063      16.92857435       1.37742703
H        0.34524288      17.40727696       1.71026889
H        1.91364740      17.40391861       1.72498443
O        3.37758065      18.22555230       2.31992450
H        3.40193879      18.21349588       3.29831966
H        4.17634992      17.74784229       2.01607503
O        1.13783430      16.90154533       5.98165597
H        0.33542530      17.34499492       5.63816043
H        1.11136038      15.98447967       5.63949911
O        3.39006221      18.21997264       5.08291899
H        2.60344035      17.73974056       5.41362310
H        4.17250055      17.73502660       5.41606685
O        3.37777128      20.81707430       1.38704936
H        3.37805477      20.78513484       0.40882968
H        3.37859303      19.88809178       1.69666647
O        1.13450781      22.13758827       2.29869936
H        1.15352719      22.12855956       3.27696136
H        1.93881715      21.66555616       2.00076480
O        3.40256800      20.83133352       5.97254740
H        3.41559408      19.90728161       5.64898949
H        4.20830822      21.26215609       5.62068131
O        1.13725522      22.12463444       5.06974884
H        1.94930855      21.69098790       5.40250495
H        1.15127730      23.04328478       5.40696346
O        5.61867959       1.31568020       1.37065949
H        4.80671573       1.75268233       1.69872779
H        5.59551822       0.39466527       1.70183299
O        7.86691673       2.60885366       2.29685661
H        7.85448135       2.59140522       3.27549778
H        7.05888580       2.14326448       1.99834154
O        5.64170820       1.29147625       5.95552414
H        5.65282061       1.30991564       6.93419031
H        6.44648243       1.76750391       5.66366821
O        7.88533067       2.60771406       5.05737708
H        8.69605039       2.17338640       5.39320177
H        7.91192611       3.52923381       5.38763360
O        7.90475002       5.20586541       1.37734320
H        7.09683036       5.64884790       1.70769850
H        7.87303505       4.28725031       1.71496260
O        5.64085166       6.49792929       2.28808756
H        4.82879164       6.06667162       1.95143299
H        5.62630438       7.41731084       1.95332661
O        7.90413283       5.20842523       5.96694742
H        7.91968735       5.22669243       6.94557011
H        8.70666345       5.68113406       5.66597283
O        5.62627436       6.46730669       5.04425302
H        5.65542032       6.46611046       4.06582584
H        6.44107327       6.01905547       5.34950333
O        5.64709536       9.10908209       1.36956387
H        5.67644558       9.12586309       0.39141921
H        6.44923341       9.57221376       1.68447459
O        7.89951169      10.40873599       2.32780406
H        7.90226207      10.38655941       3.30622006
H        8.71044146       9.94142758       2.03960994
O        5.62052146       9.06538855       5.98875506
H        4.82599540       9.52103910       5.64402785
H        5.59424050       8.15136491       5.64009319
O        7.87835662      10.38863416       5.09674932
H        7.09643826       9.90014974       5.42473902
H        8.66694421       9.91674870       5.43436100
O        7.90504995      12.99862002       1.39308133
H        7.93087227      12.08364006       1.74121892
H        8.70981786      13.44616209       1.72472043
O        5.64297496      14.29502093       2.28163085
H        5.66380151      14.28767982       3.26024533
H        6.45450701      13.83349016       1.98576897
O        7.88071089      12.99732662       5.98257482
H        7.89087171      12.97815757       6.96119509
H        7.88106237      12.06315036       5.68859658
O        5.64699181      14.30302803       5.04488614
H        4.85670636      13.83705325       5.38553337
H        6.42396541      13.81939694       5.39380802
O        5.61379486      16.90569067       1.39186921
H        5.60899110      16.89548267       0.41319521
H        5.62407002      15.96995947       1.67941107
O        7.86787062      18.21917498       2.29597670
H        7.86110549      18.20935946       3.27454926
H        7.06097735      17.74776845       2.00502276
O        5.64042433      16.90238107       5.97322157
H        5.66658928      15.98486822       5.63272949
H        6.44520505      17.34892999       5.64011243
O        7.89391954      18.21270379       5.06009785
H        8.69609900      17.77371684       5.40904455
H        7.91303132      19.13261967       5.39431497
O        7.87783222      20.82695151       1.37492559
H        7.88463188      20.79923107       0.39652742
H        7.87628822      19.89756520       1.68126231
O        5.62523403      22.13494959       2.28561696
H        4.84371820      21.64642306       1.95469523
H        6.41170715      21.65853154       1.94880121
O        7.89868779      20.81985394       5.97294222
H        7.11452871      21.29136002       5.62372736
H        8.67932468      21.30630001       5.63796004
O        5.65436701      22.11554991       5.03626030
H        5.64381824      22.14680980       4.05757802
H        5.65095416      23.04482678       5.34517270
O       10.13048814       1.31567287       1.37750104
H       10.11111110       1.33711534       0.39879976
H        9.32510600       1.78018574       1.68302435
O       12.40612296       2.58106935       2.31716888
H       11.61365667       2.11830500       1.97724450
H       13.18240493       2.09956294       1.96345826
O       10.14570914       1.32802034       5.97753186
H       10.16362071       1.30959423       6.95608597
H       10.96179164       1.78528610       5.68967844
O       12.41985007       2.60644679       5.07869288
H       12.43247564       2.58611776       4.10015699
H       13.22246222       2.13125718       5.37636175
O       12.40346830       5.17860568       1.39101422
H       12.43018717       4.26355318       1.73795278
H       13.20575283       5.62965278       1.72425428
O       10.16052661       6.50300368       2.29186496
H        9.37063794       6.03100857       1.95747599
H       10.93949810       6.01572457       1.95424071
O       12.38380280       5.20718408       5.97771078
H       12.37089444       5.18646027       6.95619624
H       12.39762794       4.27405196       5.68103225
O       10.15211736       6.52427779       5.05253194
H       10.16989673       6.50330661       4.07408198
H       10.95125000       6.04614693       5.35519767
O       10.15942408       9.12043777       1.42434891
H       10.18194426       8.19399205       1.74005822
H       10.97506301       9.54915199       1.75419890
O       12.44407994      10.39507471       2.31328956
H       13.24938894       9.96314012       1.96230240
H       12.44689616      11.31140424       1.96917973
O       10.14884655       9.10703671       5.99426059
H       10.17319445       8.19174254       5.64622956
H       10.95049291       9.55027761       5.64853378
O       12.40545393      10.39669701       5.07125127
H       12.44357341      10.39274806       4.09303549
H       13.21623563       9.94347162       5.38092000
O       12.39224851      12.99355816       1.37646814
H       12.37385976      13.01128037       0.39808452
H       11.59027895      13.46429052       1.68134158
O       10.15343317      14.32000635       2.30654419
H       10.15106344      14.34749760       3.28476803
H       10.14128560      15.24995117       2.00163896
O       12.35218354      12.99094318       6.00290544
H       12.36786367      12.96088305       6.98136519
H       12.37176760      12.06277607       5.69193544
O       10.12794665      14.32389345       5.07062455
H        9.33943797      13.84221847       5.39382653
H       10.90420980      13.83370240       5.41116114
O       10.13131646      16.92575991       1.38891891
H       10.11802140      16.92856598       0.41046876
H        9.31830713      17.38670044       1.68016431
O       12.39563449      18.20554453       2.30959222
H       12.36440998      18.20557765       3.28778480
H       11.58459868      17.74966460       2.00499201
O       10.13989113      16.91839831       6.01388572
H       10.13634879      16.88417778       6.99199411
H       10.13886479      15.99022258       5.70232909
O       12.36974962      18.24457561       5.07239400
H       11.57568496      17.79521972       5.42682668
H       12.34328465      19.16455318       5.40536817
O       12.39693741      20.80367171       1.37385912
H       11.59420101      21.25212307       1.70853067
H       12.37087780      19.88930596       1.72280480
O       10.14216068      22.12983422       2.28740843
H        9.33399444      21.68981644       1.95443356
H       10.11898950      23.04672340       1.94468490
O       12.37047707      20.85210014       5.98760293
H       11.59503295      21.33736574       5.63770553
H       13.16321358      21.30976457       5.64188263
O       10.13394098      22.15092327       5.04629210
H       10.13329309      22.16996013       4.06743576
H       10.13225930      23.08301555       5.34564599
O       14.64398943       1.29222952       1.37173392
H       14.66085303       1.27633534       0.39328965
H       14.65549471       0.35738850       1.66366665
O       16.89834788       2.59878664       2.30455909
H       16.87150844       2.58685425       3.28343022
H       16.09100642       2.13896110       1.99740699
O       14.65946653       1.27954795       5.98226509
H       14.65424810       1.24791916       6.96058993
H       14.66029634       0.35114154       5.67216379
O       16.90791717       2.59412549       5.06109462
H       16.11282274       2.13984377       5.40664063
H       16.86530870       3.51379047       5.39431983
O       16.89822972       5.20660244       1.38853130
H       16.91687833       4.28728468       1.72381591
H       17.71296518       5.64056587       1.71459064
O       14.64396302       6.50691158       2.30755359
H       15.45308660       6.06394903       1.97975411
H       14.67175677       7.42202775       1.96042837
O       16.86241574       5.19569445       5.97320894
H       16.85415984       5.20977410       6.95165223
H       16.05826518       5.66963192       5.67813203
O       14.62279788       6.52671510       5.06909807
H       14.61152515       6.51419853       4.09050733
H       13.81551660       6.05868621       5.36545762
O       14.69119196       9.10090388       1.36441439
H       14.70548097       9.11045911       0.38549103
H       15.49980307       9.56571311       1.66182846
O       16.94267889      10.40898184       2.27627322
H       16.92335085      10.43173588       3.25482934
H       16.92888012      11.34261377       1.98102575
O       14.66983750       9.12281538       5.99365295
H       14.66135860       9.09313615       6.97196048
H       14.65553759       8.19272747       5.68824024
O       16.90806192      10.42046263       5.03658124
H       16.10776628       9.97667455       5.38422488
H       16.88088276      11.33749211       5.37862259
O       16.90261817      13.01423175       1.38335930
H       16.11378410      13.48332380       1.72369395
H       17.68446342      13.50281005       1.71231442
O       14.64079536      14.29487307       2.31112992
H       14.60443576      14.27457714       3.28896051
H       13.84036912      13.82833021       1.99490371
O       16.86477835      13.01325590       5.97329269
H       16.86013350      13.02360113       6.95186569
H       16.05102962      13.47430239       5.68346463
O       14.59811590      14.29542194       5.07412055
H       13.79309291      13.85766923       5.41834758
H       14.57337891      15.22174250       5.38952252
O       14.65465350      16.90086063       1.39367037
H       13.84617380      17.34085880       1.72676341
H       14.62552990      15.98119174       1.72788009
O       16.90618411      18.20041480       2.30800670
H       16.88766116      18.18990196       3.28657844
H       16.09888243      17.73297254       2.01067225
O       14.61696902      16.90774550       5.95340856
H       13.84027637      17.40533981       5.62570526
H       15.41124974      17.37726371       5.62700820
O       16.89459178      18.20146758       5.06884647
H       17.70013010      17.75903211       5.40494292
H       16.92239802      19.12029340       5.40576948
O       16.90278899      20.79503085       1.36155123
H       16.92468960      19.87867500       1.70486278
H       17.70264076      21.23963468       1.71070264
O       14.65555545      22.10925287       2.27092583
H       13.86798363      21.62854049       1.94365007
H       15.43744143      21.62458884       1.93596690
O       16.91137465      20.80890630       5.97590541
H       16.91907718      20.82964725       6.95427292
H       17.71931258      21.27847573       5.68396797
O       14.65074520      22.10310190       5.04195696
H       14.67289621      22.09179898       4.06383619
H       15.45453124      21.63381759       5.34435885
O       19.14915952       1.28884072       1.39972712
H       18.34193179       1.73339896       1.73086319
H       19.12025162       0.37166630       1.73915088
O       21.40377341       2.61818881       2.28603784
H       20.61600469       2.12979580       1.97152112
H       22.18427041       2.13484586       1.94431489
O       19.19505973       1.31776873       5.96919811
H       18.40233099       1.78464268       5.63605159
H       19.96973847       1.80391962       5.62074031
O       21.43346276       2.64578396       5.04601373
H       21.43080950       2.66916596       4.06760632
H       21.42376149       3.57461383       5.35404361
O       21.42215099       5.21193508       1.37589062
H       21.41847345       5.18687174       0.39739829
H       21.41154115       4.27882762       1.67369138
O       19.16307390       6.49097561       2.30047790
H       19.97026764       6.05396032       1.95991361
H       19.18734165       7.41212523       1.96896949
O       21.39728868       5.23874880       5.99957435
H       21.37347759       5.23514201       6.97815608
H       20.58451245       5.69295502       5.69838045
O       19.12166435       6.49367134       5.05864008
H       19.11985140       6.47376462       4.07988470
H       18.31383533       6.02628186       5.35329942
O       19.19005476       9.09103363       1.37921485
H       18.40476525       9.57488348       1.70815127
H       19.96958257       9.57334312       1.72338725
O       21.41746468      10.41813697       2.31334774
H       21.41827402      10.44107923       3.29182227
H       21.41612934      11.34868913       2.00953522
O       19.15285108       9.09875335       5.95551315
H       18.35623854       9.55255252       5.61248359
H       19.11379217       8.17886341       5.62219435
O       21.41310375      10.40703408       5.07177086
H       20.63131176       9.91747935       5.39961995
H       22.20294499       9.93624519       5.40685477
O       21.40661773      13.01993927       1.39106923
H       21.42981985      13.02558818       0.41256249
H       22.21497459      13.48777972       1.68575239
O       19.15099687      14.32469156       2.30069283
H       19.95609843      13.87844450       1.96694481
H       19.18283538      15.24307760       1.96354744
O       21.39696015      13.01271434       5.96916560
H       20.58238871      13.44380181       5.63861394
H       21.37654509      12.09049739       5.64142897
O       19.13357625      14.29508532       5.05668300
H       19.11294428      14.29195879       4.07797513
H       18.31890683      13.84371480       5.35733551
O       19.17141444      16.93000231       1.38241088
H       19.13631848      16.94606024       0.40412733
H       18.36074408      17.38120178       1.69515166
O       21.41658930      18.24340156       2.29083378
H       20.60929306      17.80144518       1.95598675
H       21.39212742      19.16115214       1.95173921
O       19.16460312      16.90334993       5.98195586
H       19.17568073      15.98385751       5.64747410
H       19.96958513      17.33741528       5.63349955
O       21.42068538      18.19682783       5.04808266
H       21.41677071      18.23892742       4.06999834
H       21.42126185      19.12367357       5.36274324
O       21.40544786      20.85085151       1.37966661
H       21.42080460      20.86335058       0.40107697
H       22.21560499      21.31040486       1.68018028
O       19.13199976      22.09745655       2.32106029
H       19.16694528      22.08706366       3.29899406
H       19.94867625      21.65679175       2.00898787
O       21.43138011      20.80028173       5.97660648
H       21.45574669      20.81217219       6.95515561
H       22.23618940      21.26971428       5.67563384
O       19.17488701      22.11167275       5.08729504
H       19.98202554      21.66889841       5.42077559
H       19.20983106      23.03483783       5.40945938
O        1.13284734       1.28501515       8.75751688
H        1.12307631       1.27334463       7.77889953
H        1.13534295       0.35109635       9.05065454
O        3.38061856       2.61194861       9.65463886
H        3.36164490       2.59438882      10.63330806
H        2.58306093       2.13018414       9.35462269
O        1.13259516       1.31180745      13.35802535
H        1.11008991       1.32488904      14.33656933
H        0.32492051       1.77783480      13.05903125
O        3.38602713       2.59848185      12.41285670
H        2.60048749       2.13127154      12.76317856
H        4.16784522       2.11059797      12.74388364
O        3.37617190       5.20889010       8.73605017
H        3.38256235       5.17366571       7.75776090
H        3.37053223       4.27971214       9.04498224
O        1.13082186       6.51622129       9.65815646
H        1.93324919       6.07358197       9.31360409
H        1.15781604       7.43592084       9.32418506
O        3.37035867       5.21090623      13.31219297
H        3.39786480       4.28810244      12.98679717
H        4.17864640       5.64856317      12.97524067
O        1.09665832       6.50014341      12.41668885
H        1.12958331       6.49350225      11.43824383
H        1.90661840       6.04118257      12.71960275
O        1.14660180       9.12161472       8.74003846
H        1.17495224       9.13545302       7.76163803
H        1.95221588       9.58374016       9.04824027
O        3.41296210      10.41422503       9.66966267
H        3.41916903      10.38961332      10.64790476
H        4.21776052       9.94398736       9.37190816
O        1.10161502       9.10484358      13.34082406
H        0.30351433       9.55212573      12.99273060
H        1.07658755       8.18592087      13.00452796
O        3.38382759      10.38677220      12.43450540
H        2.57544807       9.94436498      12.76348177
H        3.35084257      11.30749799      12.76521023
O        3.37739379      13.01512012       8.74442653
H        3.40764632      12.09869670       9.08708231
H        4.18495461      13.45885153       9.07415200
O        1.12879030      14.34039929       9.65614855
H        0.34687610      13.85700400       9.31870629
H        1.91400915      13.85614982       9.32935288
O        3.35955297      12.99970965      13.32926753
H        2.57674890      13.48568683      12.99872624
H        4.14223117      13.47536097      12.98205521
O        1.12058444      14.33842738      12.41821024
H        1.12218399      14.36036934      11.43970574
H        1.13238475      15.27096553      12.71666594
O        1.12732800      16.94251718       8.74172658
H        1.12769209      16.90269201       7.76356484
H        1.12856171      16.01348250       9.05128169
O        3.38994381      18.23221635       9.65242706
H        2.57725167      17.79659020       9.32342836
H        3.37312146      19.14880646       9.30907335
O        1.14351824      16.93593639      13.32941828
H        0.35653829      17.41537153      12.99933450
H        1.92756845      17.42050022      12.99963263
O        3.40218098      18.23322161      12.41468696
H        3.40103526      18.25911836      11.43619231
H        3.40193324      19.16380591      12.71887345
O        3.39199510      20.82942529       8.72948324
H        3.41565097      20.84442667       7.75080946
H        4.19539126      21.29969702       9.03314833
O        1.14015941      22.10314730       9.67125618
H        1.17095139      22.10082708      10.64957671
H        1.94761988      21.64386657       9.36163708
O        3.40210384      20.82950728      13.33813004
H        3.37174932      20.83367835      14.31651899
H        2.59759838      21.30047864      13.03755176
O        1.15546395      22.13402755      12.42957554
H        0.35360151      21.68677604      12.76960345
H        1.12457589      23.05356552      12.76470959
O        5.63880135       1.32207468       8.72075754
H        4.85596397       1.80239219       9.05907118
H        6.42556446       1.80049463       9.05422286
O        7.89900329       2.60420032       9.63453844
H        7.89028751       2.63625477      10.61289412
H        7.90481632       3.53431142       9.32816056
O        5.63299679       1.28534468      13.31806454
H        5.63711987       1.26228258      14.29669785
H        5.64739995       0.35376854      13.01676773
O        7.87310588       2.60998793      12.39294770
H        7.07055386       2.16021177      12.72708572
H        7.85092725       3.52189043      12.74817691
O        7.89447692       5.20950704       8.72847128
H        7.10380106       5.67834845       9.06469658
H        8.67116078       5.69104978       9.08094989
O        5.63458431       6.49926301       9.65807089
H        5.61365044       6.48904052      10.63653201
H        4.82746093       6.03577262       9.35473040
O        7.88324409       5.19635383      13.34918412
H        7.91121612       5.20638350      14.32766096
H        8.69143931       5.65875034      13.04578801
O        5.63791426       6.49584665      12.41678937
H        6.44159652       6.05439981      12.76014696
H        5.65969246       7.41324149      12.75771956
O        5.66801990       9.10115612       8.75094577
H        5.64690824       9.07112094       7.77291681
H        5.65360619       8.17038482       9.05452235
O        7.90866242      10.41154180       9.67738331
H        7.12454593       9.93326742       9.33742256
H        8.69151947       9.93266208       9.33645102
O        5.64831274       9.09467047      13.35214731
H        4.86075363       9.56830332      13.01566703
H        6.42899176       9.57946443      13.01417581
O        7.89278895      10.41273967      12.43523613
H        7.90463686      10.43004514      11.45641675
H        7.88564579      11.34587397      12.73130016
O        7.90739656      13.01097385       8.74516166
H        7.92571588      12.09432341       9.08809598
H        8.71626643      13.44881203       9.07972289
O        5.64535361      14.31399092       9.65361777
H        6.45608495      13.87771879       9.32174246
H        5.65949512      15.23013167       9.30921335
O        7.86244926      13.01836079      13.33583642
H        7.83521992      13.02736164      14.31445622
H        7.05356508      13.47808830      13.03163272
O        5.60211283      14.30703777      12.41451779
H        5.62455371      14.33384255      11.43620639
H        5.61309363      15.23830602      12.71749549
O        5.63512749      16.91526375       8.73241464
H        5.61399095      16.92411930       7.75396984
H        4.82841946      17.38097899       9.03395215
O        7.88347380      18.21303324       9.67019341
H        7.08333314      17.76208578       9.33098114
H        7.84874274      19.12681283       9.31898642
O        5.63384071      16.90222434      13.33855593
H        4.85422696      17.39139568      13.00429274
H        6.41988701      17.37929142      13.00141339
O        7.87981740      18.20894982      12.42794042
H        7.88209777      18.23532756      11.44919377
H        7.88650489      19.13933459      12.73317398
O        7.85567813      20.79617942       8.73282104
H        7.85507169      20.81961084       7.75413824
H        7.05749461      21.28246546       9.02443913
O        5.63348709      22.14640581       9.64062034
H        5.64284690      22.15683242      10.61921911
H        5.63462273      23.08104347       9.34789136
O        7.89262653      20.79917020      13.35916236
H        7.91411476      20.81296353      14.33740156
H        8.69649970      21.27244360      13.06046390
O        5.65575629      22.10446821      12.40308750
H        4.86722754      21.63412362      12.74343847
H        6.43601915      21.62483136      12.74823467
O       10.14105072       1.26318768       8.73508901
H        9.34094020       1.71863236       9.06765057
H       10.10230962       0.34688940       9.07738575
O       12.38444322       2.58568299       9.64895449
H       11.60581391       2.09306392       9.31800364
H       13.17537789       2.11357979       9.31812534
O       10.12861928       1.30693505      13.32144131
H        9.34239582       1.77673906      12.97629483
H       10.90949615       1.79253707      12.98492586
O       12.37351396       2.61995757      12.41202774
H       12.38374158       2.63389325      11.43359433
H       12.38820982       3.55230438      12.70915609
O       12.36472273       5.18929161       8.73998617
H       11.56515499       5.63379736       9.08820295
H       12.34188991       4.26882984       9.07220538
O       10.12457808       6.50341796       9.68318176
H       10.12651413       6.53431043      10.66168046
H       10.14291596       7.43253665       9.37404733
O       12.40176110       5.22356760      13.33640486
H       12.41628487       5.22874323      14.31500252
H       13.21366636       5.68416947      13.04129978
O       10.13420184       6.50585671      12.44208898
H       10.95062768       6.07225316      12.76519014
H       10.15097200       7.42056886      12.79093861
O       10.15067824       9.09602612       8.75271477
H       10.17541421       9.10558927       7.77400323
H       10.95484585       9.56544058       9.05567041
O       12.39192668      10.40260525       9.67746216
H       12.38229110      10.42573292      10.65609306
H       12.40006808      11.33495675       9.37780508
O       10.13258939       9.09800621      13.37993150
H       10.10227895       9.12094372      14.35796193
H        9.33355776       9.56839919      13.06599903
O       12.37727158      10.41154354      12.43501224
H       11.59847868       9.93446343      12.78601543
H       13.16756052       9.93573692      12.76271501
O       12.40403617      12.99680858       8.75681057
H       11.62340392      13.48388415       9.09307814
H       13.19283199      13.47584425       9.08291154
O       10.16541334      14.30499912       9.66917601
H       10.14711685      14.32998241      10.64786889
H       10.15204877      15.23769920       9.37092809
O       12.39571533      13.03163484      13.32595578
H       11.58192965      13.46093698      12.99159724
H       12.37625031      12.10874697      13.00133079
O       10.12323516      14.30743559      12.42358769
H        9.31220464      13.87265314      12.75793673