288
Lattice="13.52118 0.0 0.0 0.0 15.61292 0.0 0.0 0.0 14.72" Properties=species:S:1:pos:R:3 ipi_comment="Step:          35  Bead:       0 positions{angstrom}  cell{angstrom}" pbc="T T T"
O        1.14032939       1.33181377       1.37609807
H        1.11234094       1.33948514       0.39721393
H        0.32686694       1.78585797       1.67772554
O        3.38445084       2.59711080       2.33284191
H        2.57789662       2.16184014       1.98727046
H        3.36393123       3.51349122       1.98817101
O        1.13590841       1.30453002       5.98033498
H        1.15528116       1.31656587       6.95871490
H        1.95025105       1.76131865       5.68490476
O        3.39978076       2.59471478       5.08886397
H        3.41359833       2.58695876       4.11001421
H        4.21285316       2.13392130       5.38231116
O        3.35908893       5.18147538       1.38094559
H        3.34300232       5.19876301       0.40227985
H        2.56068759       5.66264846       1.67930624
O        1.12146228       6.52046869       2.29027295
H        1.12488766       6.53507838       3.26856553
H        1.11658901       7.45465064       1.99742410
O        3.36529666       5.19534835       5.99244215
H        3.37150418       5.15980626       6.97070843
H        3.37939837       4.26560358       5.68511049
O        1.12255233       6.50267977       5.05941654
H        0.33304847       6.02816535       5.38956577
H        1.90201099       6.01965726       5.40273523
O        1.10565864       9.12567469       1.37844187
H        0.32791769       9.61550200       1.71570733
H        1.89574321       9.59952258       1.70891451
O        3.37302936      10.41446274       2.29254431
H        3.39094831      10.40591674       3.27105240
H        4.17425905       9.93642501       1.99682362
O        1.12177855       9.10417061       5.97112891
H        1.12434323       9.07728004       6.94988605
H        1.12248896       8.17275563       5.66894275
O        3.36298572      10.42164917       5.05698802
H        2.58099791       9.93707991       5.39241867
H        4.14842321       9.94442598       5.39326573
O        3.37623083      13.01564020       1.37393144
H        3.37120711      12.98868417       0.39543221
H        3.37231110      12.08567740       1.67976836
O        1.13947569      14.34879665       2.29935410
H        1.93815786      13.89558823       1.96049203
H        1.16907756      15.26518145       1.95601990
O        3.38576397      13.02510667       5.97548820
H        2.57829416      13.46570135       5.64133052
H        3.35818021      12.10522797       5.64207470
O        1.11694741      14.31054017       5.05733722
H        1.12370067      14.35009052       4.07926056
H        1.12562830      15.23788660       5.37038490
O        5.62845318       1.30280961       1.39313530
H        4.82460065       1.74142306       1.74002598
H        5.61061210       0.38342593       1.72911139
O        7.89118765       2.59643344       2.28621550
H        7.07966883       2.15917224       1.95588598
H        7.87041082       3.51666951       1.95299975
O        5.65873452       1.30996889       5.98362179
H        5.67381132       0.38946069       5.65042852
H        6.46593056       1.74251503       5.63602308
O        7.90558515       2.57902355       5.04265112
H        7.92579250       2.57485954       4.06398030
H        8.71864530       2.12627690       5.34686885
O        7.88322919       5.20098211       1.37443822
H        7.09517830       5.67239500       1.71394804
H        8.66498588       5.68556533       1.70949126
O        5.62105112       6.47924827       2.29392455
H        5.59526267       6.46944334       3.27247179
H        4.81568109       6.01322500       1.99007557
O        7.85908204       5.18070848       5.96766339
H        7.86453739       5.15548057       6.94586191
H        7.87363960       4.25043966       5.66372044
O        5.61533404       6.49901605       5.05525289
H        4.83027163       6.02876962       5.40294134
H        6.39558524       6.01207580       5.39098995
O        5.63096696       9.08851256       1.39653838
H        5.63830849       9.07752017       0.41814043
H        5.62314898       8.15364578       1.68655199
O        7.89078326      10.39495330       2.30640498
H        7.87305248      10.38696054       3.28476539
H        7.08679559       9.92290045       2.00861912
O        5.61736472       9.10748855       5.97029812
H        5.64085120       8.18980660       5.63076203
H        6.42942240       9.54634284       5.64599161
O        7.89798930      10.39977812       5.07130312
H        8.70534136       9.96427451       5.41110754
H        7.91593025      11.31992049       5.40448507
O        7.88511774      13.00238343       1.39263063
H        7.88633915      12.97759571       0.41444658
H        7.88530825      12.07106757       1.69388546
O        5.62578555      14.31064855       2.30209496
H        4.84403525      13.83150514       1.95820853
H        6.41090428      13.83066505       1.96878151
O        7.89563091      13.01074086       5.98439013
H        7.10646044      13.48282087       5.64928775
H        8.67360500      13.49837762       5.64440433
O        5.64583193      14.32377134       5.06294546
H        5.61714364      14.30661937       4.08455402
H        4.83796702      13.86243846       5.36803481
O       10.14199573       1.31033743       1.36475282
H        9.33389683       1.74853648       1.70203209
H       10.11962568       0.39352168       1.70823797
O       12.39420145       2.60467885       2.28821997
H       11.58722376       2.16344817       1.95211065
H       12.36871693       3.52520115       1.95677885
O       10.15795075       1.31025199       5.98596776
H       10.16949399       1.32547678       6.96449735
H       10.96637612       1.77434663       5.68606942
O       12.40435520       2.60271977       5.05390948
H       12.42122206       2.58456711       4.07570944
H       13.21480005       2.14579789       5.35847051
O       12.38453377       5.21429586       1.37520008
H       12.42566987       5.21812646       0.39729061
H       13.19064896       5.67442976       1.68596310
O       10.12906446       6.52050209       2.28924308
H       10.93381705       6.07456491       1.95461542
H       10.16410774       7.43939249       1.95392969
O       12.37312234       5.20991714       5.97278310
H       11.56696920       5.64550854       5.62839247
H       12.35764793       4.29096092       5.63689619
O       10.11125607       6.50014653       5.05332248
H       10.09192874       6.50018045       4.07493475
H        9.30454127       6.03337103       5.35159990
O       10.16352991       9.12889357       1.36916736
H        9.37182910       9.59299416       1.70907017
H       10.93909334       9.61704493       1.71342175
O       12.39566159      10.45955074       2.29899138
H       12.39728546      10.47518917       3.27773665
H       12.39436485      11.39269443       2.00251108
O       10.17213534       9.10522435       5.98664779
H       10.16798445       9.06686402       6.96463679
H       10.14852696       8.17833056       5.67401985
O       12.40629681      10.42717558       5.05589119
H       11.62515722       9.94277737       5.39338153
H       13.19076156       9.94495844       5.38935475
O       12.39531639      13.06107933       1.38814309
H       11.60971224      13.53478243       1.72879326
H       13.18072700      13.54264312       1.71875463
O       10.12417022      14.33803662       2.31154187
H       10.10311971      14.32436286       3.29026937
H        9.32954700      13.85496409       2.00640596
O       12.38025402      13.02278396       5.97985039
H       12.40316104      12.10451870       5.64053739
H       13.18563910      13.46281940       5.63909198
O       10.12907975      14.33239432       5.06630394
H       10.93414617      13.88475463       5.39803921
H       10.16160172      15.24994140       5.40729668
O        1.14720153       1.31617502       8.74706195
H        1.15454145       0.39566682       9.07980149
H        1.95318644       1.74287025       9.10363644
O        3.40264832       2.57155405       9.70812209
H        3.42464246       2.56094380      10.68673043
H        4.20967434       2.11304093       9.39657454
O        1.11349203       1.31864181      13.34315665
H        0.30846615       1.75229498      12.99229912
H        1.09813896       0.39956144      13.00531681
O        3.38786459       2.59283845      12.46522512
H        2.57180244       2.15893863      12.78937437
H        3.35936256       3.51769194      12.78573543
O        3.38007067       5.15250748       8.74942845
H        3.40879542       4.24032535       9.10423942
H        4.17842011       5.60705218       9.08779395
O        1.14669375       6.49616869       9.63798166
H        0.35282419       6.03121052       9.30367359
H        1.92349546       5.99791398       9.31014106
O        3.36621953       5.20392768      13.34203008
H        2.59000105       5.68453128      12.98713894
H        4.15617083       5.67751584      13.01064231
O        1.14719885       6.51595654      12.39138745
H        1.14595321       6.54101156      11.41276738
H        1.13320514       7.44478965      12.69998518
O        1.12846716       9.09307930       8.72818442
H        1.16311072       8.17316662       9.06164365
H        1.92688731       9.54436116       9.07057172
O        3.36474246      10.40928457       9.66266345
H        3.36902672      10.43386796      10.64104008
H        3.36617836      11.34059649       9.36111238
O        1.12205885       9.11012943      13.33283998
H        1.09195190       9.11732217      14.31113906
H        0.32055063       9.58170372      13.02649979
O        3.38536464      10.40887956      12.42861330
H        2.57973616       9.96497909      12.76364049
H        3.35345374      11.32761709      12.76491896
O        3.38189968      13.01332315       8.74216684
H        3.40319052      13.02623997       7.76395844
H        4.18774287      13.48124160       9.04262840
O        1.12660589      14.31928161       9.65892350
H        0.34537474      13.83854881       9.31655333
H        1.91238870      13.84047156       9.32505613
O        3.36662109      13.01501657      13.33874203
H        2.58464193      13.49707374      13.00102006
H        4.15264686      13.49064495      12.99985209
O        1.12264342      14.33697214      12.41769530
H        1.10224642      14.31554669      11.43918394
H        0.32065200      13.86572581      12.72259189
O        5.64768597       1.30583832       8.74214024
H        5.66267307       1.32908122       7.76346255
H        6.45790025       1.76585583       9.04403729
O        7.89568051       2.59034646       9.66455521
H        7.91064429       2.57553311      10.64344518
H        8.70664298       2.13016690       9.36486651
O        5.63979927       1.29911428      13.35064111
H        5.61971453       1.30046607      14.32929570
H        4.82581153       1.76155588      13.06167492
O        7.87763706       2.59771201      12.41867382
H        7.07184179       2.15731043      12.75975839
H        7.85545503       3.51755286      12.75291259
O        7.86640717       5.18267195       8.73655121
H        7.05909737       5.62172092       9.07265694
H        7.85014336       4.26573465       9.07943727
O        5.61253690       6.48781697       9.66740289
H        5.61830638       6.52666880      10.64550412
H        5.61168529       7.41456434       9.35333415
O        7.87493686       5.20068024      13.33570627
H        7.89897794       5.21202898      14.31427456
H        8.68962160       5.65452830      13.03699139
O        5.62227753       6.51019505      12.42911442
H        6.42973065       6.06594255      12.75944237
H        5.65242684       7.42724764      12.76990876
O        5.61335243       9.10040999       8.73758695
H        5.59041137       9.10886386       7.75956395
H        4.80960928       9.56938043       9.04091537
O        7.88690351      10.38898094       9.64416529
H        7.07414064       9.95840996       9.30936987
H        7.87300772      11.30910471       9.31180237
O        5.64681151       9.11265299      13.35272527
H        4.86112513       9.58908916      13.01565450
H        6.43105558       9.58399662      13.00565309
O        7.90097000      10.39962671      12.40428385
H        7.92039114      10.37915348      11.42588766
H        8.70615501       9.93510654      12.70977964
O        7.89715179      13.01251553       8.74625630
H        7.92208210      13.03041005       7.76791316
H        8.70500254      13.47123060       9.05290008
O        5.63527538      14.32082882       9.64889283
H        6.44589608      13.88025548       9.32205692
H        5.66390360      15.23857606       9.30820278
O        7.87403140      13.00145383      13.34541230
H        7.06657623      13.43693271      13.00553912
H        7.86719314      12.08760642      12.99553399
O        5.61675039      14.30920510      12.41212583
H        5.62728976      14.34265813      11.43388839
H        5.63058532      15.23702483      12.72327821
O       10.14730061       1.29990744       8.75030198
H       10.17651790       0.37979631       9.08442341
H       10.95687199       1.74138539       9.07923808
O       12.40210133       2.60702546       9.64302526
H       13.21714870       2.17556066       9.31403978
H       12.41541367       3.52622810       9.30725610
O       10.13203999       1.30377436      13.32424490
H       10.12008419       1.31977811      14.30307739
H        9.32256791       1.77025230      13.03027788
O       12.38894196       2.59548435      12.39963074
H       12.36666157       2.58574278      11.42120017
H       11.57808841       2.14003141      12.70531723
O       12.39833079       5.21661149       8.73117186
H       12.35927383       5.23275261       7.75309987
H       11.58870254       5.66550344       9.04872035
O       10.11994727       6.47574482       9.67175728
H       10.10715405       6.45660562      10.65003884
H        9.31349520       6.00995403       9.36987172
O       12.43132088       5.19710226      13.33524474
H       12.44185083       4.28012969      12.99376366
H       13.23061204       5.63837427      12.98308665
O       10.14818175       6.47747863      12.43824404
H       10.96137837       6.04231298      12.76517924
H       10.17681165       7.39969658      12.76589571
O       10.15182280       9.07301438       8.74840175
H        9.34331362       9.52000973       9.07098755
H       10.11861820       8.15777365       9.09463238
O       12.40014561      10.40205710       9.64183141
H       11.61565379       9.91533732       9.31655126
H       13.18490361       9.92010332       9.30951633
O       10.16218831       9.08972493      13.32637582
H       10.18009856       9.11989646      14.30459418
H       10.96034203       9.56642221      13.02048804
O       12.40161080      10.42339224      12.40843420
H       12.40352071      10.44117516      11.43007243
H       12.39664518      11.35495425      12.70870214
O       12.40681417      13.00366351       8.74172877
H       12.39379971      12.98909791       7.76296090
H       12.40385100      12.06834585       9.03192267
O       10.16528487      14.31399009       9.66942510
H       10.17567394      14.29653092      10.64772744
H       10.96813701      13.84058191       9.36999055
O       12.39736526      13.02221587      13.33705905
H       12.38530470      13.04057653      14.31536408
H       11.58611208      13.48691144      13.04549510
O       10.13839645      14.30866444      12.43452203
H        9.32881957      13.86933282      12.76474507
H       10.11016506      15.23098143      12.76233570
