1080
Lattice="40.56355 0.0 0.0 0.0 39.03229 0.0 0.0 0.0 7.36" Properties=species:S:1:pos:R:3 ipi_comment="Step:          41  Bead:       0 positions{angstrom}  cell{angstrom}" pbc="T T T"
O        1.11534693       1.30262866       1.37823153
H        1.13821136       0.38323237       1.71392652
H        1.92400978       1.74024068       1.71398673
O        3.38553639       2.57655335       2.30462882
H        3.38386083       2.60558045       3.28311907
H        3.38000129       3.50853869       2.00361391
O        1.10761595       1.31071651       5.98109188
H        1.08559102       1.32011071       6.95968081
H        0.30200746       1.77501201       5.67679390
O        3.37915980       2.58574193       5.06649685
H        2.56590818       2.15230512       5.39676353
H        3.35989327       3.50201029       5.41209284
O        3.36601514       5.18463004       1.41333742
H        2.58104302       5.66493744       1.74728285
H        4.14909458       5.67153185       1.74285346
O        1.11860983       6.50612428       2.32071015
H        0.30787023       6.06851503       1.99088656
H        1.10621244       7.41753658       1.96315742
O        3.38447861       5.17178598       6.01026666
H        3.35822083       5.18893564       6.98854429
H        2.59141541       5.65668456       5.70303537
O        1.15457445       6.51211755       5.08755113
H        1.14328269       6.52668606       4.10909811
H        1.15214606       7.44839983       5.37445231
O        1.14042417       9.08938389       1.36378593
H        1.16321987       9.11303448       0.38555747
H        1.94323891       9.55695193       1.67263554
O        3.37789626      10.40492124       2.29909805
H        3.37590199      10.43588117       3.27744355
H        3.37779975      11.33594055       1.99489252
O        1.14186851       9.12270333       5.96055316
H        0.35197067       9.59910066       5.63293484
H        1.92233264       9.60945249       5.62516793
O        3.38723292      10.44039916       5.05891494
H        4.18391671       9.98403183       5.39853605
H        3.41812435      11.35602548       5.40409912
O        3.37586639      13.00311722       1.39692585
H        3.40093039      13.02397252       0.41850633
H        4.17786815      13.47582372       1.70127238
O        1.11680174      14.29296737       2.31092335
H        0.33296557      13.80943157       1.97954209
H        1.90354797      13.81464824       1.97829239
O        3.39174713      13.03417401       5.99811482
H        2.60454540      13.50961372       5.66191420
H        4.17324476      13.51215305       5.65255049
O        1.13552509      14.32548954       5.07392553
H        1.12425775      14.33798376       4.09537124
H        1.12815691      15.26038144       5.36518823
O        1.12772848      16.88483200       1.38503750
H        1.12666801      16.86833246       0.40653335
H        1.12334428      15.95202911       1.68311637
O        3.37666538      18.20629086       2.29252359
H        2.59436678      17.71762713       1.96480161
H        4.16297182      17.73095064       1.95451193
O        1.12491693      16.92423577       5.98455835
H        0.33889368      17.40218513       5.65036214
H        1.90906849      17.40499553       5.65010047
O        3.37518834      18.22630609       5.05415278
H        3.40122340      18.20279673       4.07588029
H        4.17880688      17.75990250       5.36307013
O        3.37635033      20.81465312       1.37969011
H        3.37703373      20.78821549       0.40121680
H        3.37687585      19.88358752       1.68210666
O        1.13836663      22.14016032       2.29890104
H        0.35259829      21.66142729       1.96445691
H        1.91881986      21.65360749       1.96314158
O        3.38132459      20.82116469       5.97701797
H        2.57595253      21.26685513       5.64415277
H        3.35631876      19.90433870       5.63435481
O        1.13415515      22.13360445       5.05451961
H        1.13592611      22.16575672       4.07610020
H        1.12130780      23.06235342       5.36320682
O        1.12112841      24.74021454       1.36807267
H        1.14743846      23.82093197       1.70320124
H        1.92994334      25.18061125       1.70079156
O        3.38011704      26.02942025       2.27793403
H        3.37653544      26.04964218       3.25672605
H        3.37504630      26.96257609       1.98119937
O        1.10024769      24.74223699       5.96855979
H        1.08766133      24.75104430       6.94721278
H        0.28625126      25.19850826       5.67306654
O        3.36427319      26.01098580       5.03846756
H        2.55126833      25.58008859       5.37332026
H        3.34808293      26.92735488       5.38362660
O        3.36995508      28.63477154       1.37211264
H        2.59207262      29.12132731       1.71415104
H        4.16001544      29.11036537       1.69998383
O        1.13585483      29.95161907       2.30620976
H        1.13138821      29.97050671       3.28482129
H        1.13399525      30.88534775       2.01059194
O        3.36766724      28.60211546       5.97003366
H        3.34676501      28.62644943       6.94836468
H        2.56903795      29.08088569       5.66674034
O        1.12521669      29.93401414       5.06923898
H        0.31772535      29.48859739       5.39751823
H        1.10202667      30.84757002       5.42048231
O        1.13362882      32.55387369       1.40633152
H        0.34226847      33.02579926       1.73678420
H        1.91466943      33.04244091       1.73807384
O        3.38498228      33.86370077       2.29927404
H        4.18415645      33.41224763       1.95920478
H        3.41262420      34.77955684       1.95356898
O        1.12199160      32.52582388       6.00682763
H        1.15341587      32.54743329       6.98502109
H        1.92413558      32.98984872       5.69056074
O        3.36089608      33.82624546       5.05961432
H        3.36500297      33.85894067       4.08131452
H        3.37459864      34.75703815       5.36341569
O        3.38749896      36.45005794       1.35151747
H        2.60062173      36.92086526       1.69423478
H        4.17008906      36.92536791       1.69945626
O        1.13472245      37.73395563       2.29737039
H        1.10552541      37.72163786       3.27584212
H        0.33611662      37.25960168       1.98808108
O        3.38170913      36.43677645       5.95389244
H        3.40330131      36.45356542       6.93257686
H        4.19004485      36.90070531       5.65253483
O        1.12396405      37.73934047       5.05213042
H        1.93319592      37.29965002       5.38488821
H        1.14218521      38.65623538       5.39365981
O        5.62705888       1.28253959       1.35795518
H        4.82544886       1.72529525       1.70467885
H        5.60525535       0.36408240       1.69639015
O        7.86560317       2.59465400       2.29011050
H        7.08615225       2.10890848       1.95040328
H        8.65505923       2.12394258       1.95317842
O        5.64679598       1.29783263       5.95909468
H        5.61861846       1.30377403       6.93762698
H        4.83407704       1.75448213       5.65894068
O        7.90109990       2.59553040       5.05161792
H        7.87003719       2.58313458       4.07336010
H        7.09639633       2.12863582       5.35752183
O        7.86230247       5.20098358       1.37920475
H        7.05303090       5.63668450       1.71523970
H        7.84503032       4.28244166       1.71746476
O        5.61082549       6.50405614       2.31298799
H        5.62149472       6.52962151       3.29128387
H        5.62045953       7.43458979       2.00832628
O        7.89360289       5.19476780       5.97402578
H        7.88836599       5.17004230       6.95233347
H        7.89705632       4.26378441       5.67070220
O        5.63000929       6.49040281       5.07411535
H        4.85229989       6.00335447       5.41406859
H        6.42086368       6.01311685       5.39893188
O        5.62511318       9.09908330       1.38450443
H        4.84125665       9.58158390       1.71886781
H        6.40993507       9.58550856       1.70945509
O        7.87054531      10.42384693       2.28951487
H        8.68105720       9.98673650       1.95729150
H        7.89376731      11.34167803       1.95009307
O        5.61481076       9.09590234       5.98008864
H        5.62138115       9.07279902       6.95846570
H        5.61302831       8.16331794       5.68193789
O        7.87030562      10.39140034       5.04715641
H        7.84236152      10.38782450       4.06873900
H        7.06334790       9.93094082       5.35461254
O        7.87679569      13.02394627       1.35230348
H        7.90106370      13.02858677       0.37397220
H        8.68835566      13.48152230       1.65392311
O        5.62966168      14.31034552       2.29533914
H        6.43344625      13.87242345       1.94710326
H        5.65445315      15.23127736       1.96412226
O        7.89115196      13.00007132       5.94866126
H        7.90345043      12.07763970       5.62126481
H        8.70275376      13.42934435       5.60859801
O        5.64147234      14.32006125       5.05774756
H        5.65730819      14.30089102       4.07921718
H        6.44458958      13.84531602       5.35548185
O        5.63705073      16.91379025       1.37979869
H        5.66064642      16.92924525       0.40140657
H        6.43807339      17.38761028       1.68387551
O        7.88676034      18.23046234       2.29665296
H        8.69089198      17.78540446       1.96008422
H        7.91304096      19.14848813       1.95778308
O        5.63156013      16.92198729       5.97611112
H        5.65969803      16.00134863       5.64438629
H        6.43735066      17.36225821       5.63677618
O        7.89025293      18.21789045       5.05935349
H        7.88978713      18.25073994       4.08106139
H        7.88804924      19.14739471       5.36654209
O        7.89780974      20.83183934       1.37763866
H        7.86869330      20.84543894       0.39932203
H        7.08913030      21.29064561       1.68457701
O        5.63184086      22.11766580       2.29533598
H        4.82753402      21.67453418       1.95639491
H        5.60325401      23.03811571       1.96250328
O        7.88474427      20.82664688       5.97520497
H        7.10039240      21.30409125       5.63585143
H        8.66986734      21.30428194       5.63842637
O        5.63156872      22.12663306       5.05674054
H        5.60698272      22.10978373       4.07824317
H        4.82915838      21.65561548       5.36236800
O        5.62738723      24.71928820       1.37953004
H        5.60733375      24.73064741       0.40103116
H        4.82268523      25.19156373       1.67698530
O        7.88803031      26.01437222       2.30490424
H        7.86114282      25.99916912       3.28311481
H        7.07742963      25.55975017       1.99763134
O        5.61553184      24.72479866       5.97711003
H        4.80781474      25.15636957       5.63043641
H        5.60339378      23.80537141       5.64048167
O        7.87165431      26.01707592       5.06879240
H        7.06216518      25.58238195       5.40735958
H        7.85894709      26.93428539       5.40987508
O        7.90432224      28.62712409       1.40764458
H        7.92306787      27.70617077       1.73831933
H        8.71381106      29.06308554       1.74319009
O        5.63350314      29.93331237       2.28484321
H        5.65055101      29.91138221       3.26303915
H        6.44019396      29.46437295       1.98864477
O        7.87885149      28.62021033       6.00372269
H        7.91414129      28.63495013       6.98174184
H        8.67961042      29.08899288       5.69221984
O        5.62473902      29.90684643       5.05070560
H        4.84151266      29.42315354       5.38272972
H        6.40958147      29.43883511       5.40152228
O        5.62538506      32.53895430       1.37217645
H        5.62007467      32.50571641       0.39410980
H        5.62515262      31.60919943       1.67901677
O        7.89237476      33.81913633       2.28842533
H        7.85888897      33.81488504       3.26651485
H        7.08180931      33.36357909       1.98161223
O        5.61605034      32.51775280       5.96726133
H        4.80668925      32.95523778       5.63304543
H        5.59738431      31.59908251       5.63017267
O        7.86040121      33.84664663       5.05092675
H        7.05913726      33.39770250       5.38929266
H        7.83497498      34.76352034       5.39199294
O        7.88380528      36.42587247       1.38777959
H        7.91046542      35.50360879       1.71529810
H        8.68386185      36.87037386       1.73617254
O        5.62899087      37.72555744       2.29375847
H        5.65714439      37.71271002       3.27251128
H        6.43439855      37.25908175       1.98890562
O        7.87742369      36.44445689       5.99019072
H        7.90448517      36.44754491       6.96886438
H        8.68964377      36.90182846       5.68988456
O        5.63827988      37.72900883       5.04936769
H        6.44415239      37.29249739       5.39494313
H        5.66131315      38.65083189       5.37869727
O       10.12639347       1.30074802       1.38103110
H       10.15740502       1.31755074       0.40277848
H       10.93249589       1.76337193       1.68893263
O       12.38528575       2.59398015       2.29336723
H       12.41389618       2.58736476       3.27167436
H       13.19580749       2.13385163       1.99406439
O       10.16015516       1.31712537       5.98055931
H        9.37152124       1.78511426       5.63731119
H       10.94113721       1.80011804       5.64093078
O       12.40773693       2.61970118       5.05641613
H       13.20771407       2.17574413       5.40550100
H       12.43157426       3.53804700       5.39395322
O       12.37455934       5.20709311       1.39481954
H       11.56720706       5.64689627       1.72966963
H       12.35037023       4.28514472       1.72232196
O       10.11043585       6.51506617       2.30267184
H        9.30246084       6.07979738       1.96245400
H       10.09879186       7.43327766       1.96512772
O       12.40749613       5.22045573       5.99123774
H       12.37170100       5.23085624       6.96919050
H       11.60083587       5.67908225       5.67959377
O       10.14407788       6.51423711       5.06932624
H       10.11429804       6.50470758       4.09125670
H        9.34116681       6.04399288       5.37374522
O       10.13741866       9.13156969       1.38086896
H       10.16317271       9.14289291       0.40256001
H       10.95127728       9.58066842       1.68643522
O       12.41982300      10.40455069       2.29694150
H       12.43348746      10.39257736       3.27520927
H       13.22252114       9.93098569       1.99805100
O       10.13891367       9.12504200       5.97989410
H        9.32660130       9.55160273       5.63847070
H       10.12424673       8.20389917       5.64904967
O       12.40229500      10.40909267       5.06048107
H       11.58904092       9.97792506       5.39377078
H       12.38855063      11.32794161       5.39713089
O       12.40171476      13.00885425       1.38456190
H       12.42886649      12.08791983       1.71565482
H       13.20278386      13.45015837       1.73490527
O       10.13783374      14.30486184       2.26784540
H       10.15639667      14.28838770       3.24620561
H       10.94835021      13.84128391       1.97210779
O       12.40108181      13.01644321       5.98361938
H       12.42263318      13.02582567       6.96235763
H       13.21187892      13.47813548       5.68640740
O       10.15113375      14.28667346       5.03361802
H       10.95892001      13.85682838       5.38280931
H       10.16086879      15.20532032       5.37134375
O       10.12902104      16.91421310       1.36465959
H       10.12914407      16.87974059       0.38621734
H       10.13190756      15.98527628       1.67339370
O       12.37452303      18.21036881       2.30487775
H       11.56965983      17.77297520       1.95939477
H       12.36487901      19.12688525       1.96048406
O       10.13363133      16.88782754       5.96907608
H        9.34964573      17.37012683       5.63592817
H       10.91609738      17.37427640       5.63724607
O       12.37830983      18.20767809       5.06717878
H       12.37943416      18.22808010       4.08862648
H       12.38474910      19.14112337       5.36298090
O       12.40253951      20.80599331       1.36917355
H       11.62045938      21.29144389       1.70249987
H       13.18635886      21.27816333       1.71823645
O       10.16009826      22.12108915       2.29252949
H        9.35144011      21.68249095       1.95788295
H       10.13324236      23.04049450       1.95694634
O       12.39934769      20.81594111       5.96191992
H       12.41762868      20.82442101       6.94037282
H       13.20956394      21.28158036       5.66941034
O       10.14174708      22.12546324       5.04917813
H       10.17112131      22.10826390       4.07078461
H       10.94568242      21.66071222       5.35840541
O       10.14213328      24.72395937       1.38076347
H       10.12042532      24.74003021       0.40239189
H        9.33314069      25.18338772       1.68568388
O       12.40028991      26.01529960       2.29555682
H       12.37874255      26.00833754       3.27383714
H       11.58951004      25.55542340       1.99584021
O       10.13488379      24.72859894       5.97684035
H        9.32441550      25.16197157       5.63960220
H       10.12126471      23.81035653       5.63793462
O       12.39639418      26.02694796       5.06344233
H       11.59234033      25.58345845       5.40259744
H       12.36718279      26.94685229       5.39651877
O       12.41405033      28.62272246       1.38075358
H       12.40572678      28.59608656       0.40225539
H       12.40906225      27.69288997       1.68604265
O       10.16787434      29.92919914       2.31805805
H       10.97456186      29.48820672       1.98220467
H       10.18107583      30.84106349       1.96300631
O       12.38372705      28.63131032       5.98489851
H       11.60007809      29.11830267       5.65729093
H       13.16935905      29.10585244       5.64488398
O       10.12934056      29.94190675       5.08337689
H       10.13994547      29.95988909       4.10489753
H       10.12734651      30.87662634       5.37461254
O       10.14721812      32.52520623       1.36291617
H       10.11818447      32.55000422       0.38499384
H        9.33822854      32.97965294       1.67520398
O       12.39180743      33.83246583       2.29166626
H       11.58646546      33.38890379       1.95489263
H       12.35937228      34.75321035       1.96003835
O       10.12670287      32.55840455       5.95963372
H        9.34072036      33.03642048       5.62535709
H       10.91230776      33.03733145       5.62631251
O       12.39587306      33.84973919       5.05098821
H       12.41911172      33.82714473       4.07268048
H       13.19371973      33.37321513       5.35925887
O       12.36221496      36.43679672       1.39035316
H       12.34952741      36.45491608       0.41198147
H       11.55841675      36.90616565       1.69263524
O       10.11365860      37.73872689       2.32137512
H       10.12329466      37.76794987       3.29963168
H       10.11612698      38.66795351       2.01298052
O       12.39022584      36.44476823       5.98901787
H       12.40930500      35.52756870       5.64688046
H       13.20199807      36.88015902       5.65797070
O       10.13385678      37.74227846       5.08647012
H       10.94578432      37.30163260       5.41078452
H       10.16434534      38.66279848       5.41880907
O       14.65769512       1.29280641       1.40758499
H       14.67668086       0.37119118       1.73569860
H       15.46478462       1.72998566       1.74792283
O       16.91148313       2.59875645       2.32654289
H       17.71422745       2.16123124       1.97617226
H       16.93149771       3.51815624       1.99157131
O       14.64060714       1.30789080       6.00304127
H       14.66530319       1.31392529       6.98140886
H       15.45495499       1.76106348       5.70184379
O       16.90660109       2.58242148       5.09300454
H       16.92349344       2.58018468       4.11448823
H       17.72267909       2.12454730       5.38250373
O       16.92357530       5.19619194       1.37644087
H       16.13150973       5.66698628       1.70680308
H       17.69945255       5.69060755       1.71125713
O       14.65612117       6.48706827       2.28096167
H       14.63637578       6.47811422       3.25953809
H       13.84501670       6.02504006       1.98624903
O       16.89816646       5.19299465       5.97976114
H       16.90658481       5.17551267       6.95858117
H       16.90342281       4.25945445       5.68475298
O       14.65549039       6.50064242       5.04326151
H       13.87246709       6.03043258       5.39604175
H       15.43949274       6.02269152       5.38314275
O       14.66901315       9.09181876       1.37847098
H       14.66405666       9.07443063       0.40012301
H       14.66517338       8.15792300       1.67243870
O       16.88613867      10.44371187       2.29845933
H       16.87117093      10.42478016       3.27690933
H       16.09024809       9.95887646       1.99788513
O       14.65578859       9.09982212       5.97093645
H       13.84773710       9.54435663       5.64280435
H       14.63289540       8.18485968       5.62321290
O       16.89765687      10.42183432       5.06338876
H       16.11353196       9.94203629       5.40060302
H       17.68169800       9.93724275       5.39330389
O       16.89319009      13.04421297       1.38839842
H       16.90063972      13.01591497       0.41009766
H       16.89109057      12.11313928       1.69174219
O       14.63417710      14.31178102       2.33145667
H       14.67028619      14.30354275       3.30947858
H       15.44614131      13.86361120       2.01733933
O       16.91711758      13.02316294       5.98683852
H       16.92376050      12.10431079       5.64914356
H       17.72909294      13.44914173       5.64266027
O       14.66095480      14.32184696       5.09300070
H       15.47269689      13.88696156       5.42584626
H       14.67792709      15.24200522       5.42586819
O       14.62608620      16.91006441       1.40325530
H       13.81756988      17.34874422       1.73922274
H       14.60705353      15.99180586       1.74177355
O       16.89336488      18.21156234       2.27420188
H       16.87298007      18.20076106       3.25258107
H       16.08337663      17.74607795       1.98030396
O       14.64162650      16.93106424       6.00314471
H       14.61017924      16.93608252       6.98156592
H       13.82772595      17.37889555       5.69418261
O       16.87575576      18.22005725       5.03974924
H       16.06829985      17.79487422       5.39515699
H       16.87777167      19.13787305       5.37845442
O       16.90132908      20.82257504       1.37773092
H       16.09376432      21.25695116       1.71933945
H       16.87849409      19.89984232       1.70406545
O       14.63932281      22.10928275       2.31560757
H       14.65111916      22.14039320       3.29389264
H       14.64697725      23.03847192       2.00775614
O       16.92657737      20.83119434       5.97799374
H       16.94420958      20.83979778       6.95652248
H       17.74078481      21.28407066       5.67898906
O       14.66077366      22.12326491       5.07823769
H       15.47472661      21.68883193       5.40587821
H       14.68037866      23.04200632       5.41540338
O       14.65410146      24.71409808       1.39191353
H       14.63285952      24.72726638       0.41340876
H       13.84605376      25.17811147       1.69306101
O       16.91214429      26.00889593       2.29588559
H       16.10270830      25.56820149       1.96476258
H       16.88141503      26.93021027       1.96648414
O       14.65370580      24.72875240       5.99034059
H       13.87007027      25.20507873       5.64860752
H       15.44012763      25.20138784       5.64887661
O       16.91392080      26.00385268       5.05791585
H       16.93662919      25.99366288       4.07950160
H       17.72110411      25.53882483       5.35951769
O       16.88834933      28.61101683       1.37754403
H       16.10768327      29.09585513       1.71560868
H       17.67521276      29.09022820       1.70830398
O       14.65682267      29.93254153       2.30899463
H       13.85649472      29.48334864       1.96820564
H       14.62548155      30.85033177       1.96883761
O       16.88721295      28.60508631       5.97474433
H       16.88584962      28.58681789       6.95330432
H       16.89927047      27.67267282       5.67722842
O       14.64503905      29.93053303       5.06283993
H       14.66975915      29.91910375       4.08418676
H       15.44262736      29.45187957       5.36769501
O       14.63468143      32.52309754       1.37982846
H       14.61503447      32.54187029       0.40132354
H       13.83390692      32.99849278       1.68279653
O       16.89212067      33.80707798       2.31737208
H       16.10651890      33.33162263       1.97882576
H       17.67510392      33.33884915       1.96227316
O       14.63640097      32.53238888       5.98019193
H       14.66392315      31.61200225       5.64711836
H       15.44928081      32.96951772       5.65347799
O       16.90156698      33.82888409       5.07949757
H       16.91714204      33.81212348       4.10098278
H       17.71443423      33.36818138       5.37263230
O       16.90133708      36.40777035       1.38565116
H       16.09408563      36.84707465       1.72245204
H       16.87822476      35.49047112       1.72679379
O       14.64470660      37.70581629       2.30809591
H       14.61954831      37.70172833       3.28646547
H       13.82836391      37.25969739       2.00471107
O       16.91615026      36.44129022       5.97933673
H       16.91206018      36.41049090       6.95745723
H       16.90621388      35.51027793       5.67666997
O       14.65032607      37.73505011       5.06757676
H       15.46003544      37.30015320       5.40432777
H       14.66657659      38.65349231       5.40513903
O       19.15571276       1.31165094       1.37473347
H       19.16188244       1.28271467       0.39630237
H       19.15626229       0.37977037       1.67559466
O       21.41903136       2.59631026       2.30089852
H       20.61262655       2.15578893       1.96358178
H       21.38802436       3.51821652       1.97338349
O       19.17610109       1.29710791       5.97308536
H       19.19263261       0.38060280       5.62917010
H       19.98965867       1.73064519       5.64294507
O       21.43994402       2.57597838       5.06230764
H       21.45664614       2.57516246       4.08376844
H       22.25585156       2.12435196       5.35946155
O       21.38488190       5.20056568       1.38216504
H       20.60720792       5.69143063       1.71822503
H       22.17467864       5.67411664       1.71378378
O       19.15266875       6.53530585       2.30207793
H       19.15081794       6.55234492       3.28084671
H       19.14432154       7.46714034       2.00234799
O       21.37877203       5.18331826       5.98461275
H       21.37952281       5.15866574       6.96312021
H       21.40554897       4.25387009       5.67956208
O       19.14608398       6.50643600       5.05841035
H       18.35802690       6.02889192       5.38923630
H       19.92379964       6.01545076       5.39449881
O       19.13455257       9.13608083       1.38611796
H       19.11992329       9.13730984       0.40761930
H       18.32836416       9.60675083       1.68082018
O       21.40332650      10.39916732       2.30486415
H       21.38180785      10.38388385       3.28347157
H       20.59216827       9.94448017       1.99856577
O       19.14092241       9.10544120       5.98196738
H       19.16520612       8.18496925       5.64938682
H       19.94891052       9.54478263       5.64654073
O       21.40017540      10.39455097       5.06097265
H       22.21182476       9.96246492       5.39763944
H       21.42420967      11.31501867       5.39395908
O       21.41639590      13.00063009       1.38074165
H       20.60544436      13.44173006       1.70629770
H       21.38992072      12.08199185       1.71828159
O       19.16567209      14.31317278       2.29064644
H       18.35157396      13.88208670       1.95857313
H       19.14770574      15.23201452       1.95376433
O       21.42942257      12.99901999       5.97516076
H       21.44170742      13.01352199       6.95350177
H       22.23668461      13.46833454       5.67970910
O       19.17083028      14.28980948       5.04510797
H       19.19736622      14.28261826       4.06643030
H       19.98292986      13.83864261       5.35339806
O       19.15398560      16.91336949       1.35457886
H       19.12259784      16.92437244       0.37635444
H       18.34854487      17.37683746       1.66235070
O       21.39899474      18.19693994       2.32104137
H       20.62087629      17.72541331       1.95999885
H       22.18942609      17.72397286       1.98993015
O       19.11993109      16.89946762       5.95350044
H       18.31329285      17.33663029       5.61207775
H       19.10989866      15.97965671       5.61964774
O       21.38034952      18.21024432       5.08682021
H       21.37125406      18.19446246       4.10835956
H       20.56934850      17.74313530       5.37496795
O       21.42284974      20.80419994       1.40964104
H       20.61237002      21.24718042       1.73400564
H       21.39451522      19.88629064       1.74825683
O       19.16506636      22.10847859       2.30771035
H       18.35338760      21.67463410       1.97471444
H       19.14784494      23.02681561       1.96880130
O       21.44478100      20.80959563       6.00274943
H       21.43716406      20.78681141       6.98098731
H       21.42273962      19.87786503       5.70295276
O       19.20196236      22.11701233       5.06915282
H       19.21230620      22.09888806       4.09079555
H       20.00613916      21.64739859       5.37058564