288
Lattice="13.52118 0.0 0.0 0.0 15.61292 0.0 0.0 0.0 14.72" Properties=species:S:1:pos:R:3 ipi_comment="Step:          38  Bead:       0 positions{angstrom}  cell{angstrom}" pbc="T T T"
O        1.13675889       1.30409616       1.38225314
H        1.10661585       1.31242945       0.40402013
H        0.32765168       1.76244559       1.68874241
O        3.38185264       2.61963486       2.29446921
H        3.36202390       2.59254502       3.27272760
H        2.57808890       2.15097031       1.98920764
O        1.12236868       1.29236751       5.97911837
H        0.31967753       1.73987918       5.64220335
H        1.09287024       0.37412785       5.64120149
O        3.38327917       2.58572693       5.05564892
H        2.59870879       2.10867853       5.39458777
H        4.16862355       2.10205023       5.38406694
O        3.37243621       5.22029669       1.38039707
H        3.37985259       5.18433959       0.40226282
H        3.37612622       4.29127561       1.69009844
O        1.11111934       6.50233721       2.29814426
H        1.14462148       6.49453985       3.27620012
H        1.91975894       6.04373608       1.99042104
O        3.38744038       5.19152957       5.97864566
H        3.40467094       4.27220152       5.64308686
H        4.19679550       5.62669474       5.64081766
O        1.13951851       6.51309414       5.06165814
H        1.94300046       6.06721231       5.39870238
H        1.16487951       7.43124440       5.39988029
O        1.12112486       9.10656271       1.38557982
H        0.31669888       9.54333701       1.73355724
H        1.09936216       8.18503899       1.71501675
O        3.37328571      10.43269537       2.27148464
H        3.35671756      10.40781219       3.24992965
H        2.57162599       9.95598205       1.97306984
O        1.14027402       9.11629704       5.98521385
H        1.11060928       9.12627908       6.96372123
H        0.33309081       9.58113398       5.68345602
O        3.38947044      10.39260687       5.03158339
H        2.60248358       9.92665688       5.38115275
H        4.17088279       9.91085404       5.37156556
O        3.38563639      13.03016498       1.34143438
H        3.38304480      12.98923530       0.36346672
H        3.38129263      12.10306330       1.65629030
O        1.13857793      14.31231630       2.29345628
H        1.94344756      13.87646457       1.94565448
H        1.15778812      15.23382637       1.96384763
O        3.37076499      12.99673716       5.93966535
H        3.39939059      12.07594789       5.60795665
H        4.17548625      13.43917843       5.60080553
O        1.10518102      14.30342921       5.05435890
H        1.13821856      14.29370635       4.07601638
H        1.91174834      13.83823838       5.35743691
O        5.62469265       1.31711776       1.35152994
H        4.84328400       1.79886973       1.69154392
H        6.41169983       1.78305784       1.70103894
O        7.87398294       2.59332534       2.30514017
H        7.90358935       2.58332507       3.28363487
H        8.68119971       2.12850180       2.00343877
O        5.64081745       1.27691339       5.95145543
H        5.65739639       1.30186738       6.92990640
H        6.44246511       1.75360132       5.65298083
O        7.89297313       2.60307881       5.06554738
H        8.69740635       2.16634881       5.41357515
H        7.91471219       3.52461026       5.39496222
O        7.87451121       5.19655587       1.38156244
H        7.07101117       5.64243581       1.71855671
H        7.84917009       4.27840703       1.71978890
O        5.62661844       6.51823877       2.29868696
H        4.81726043       6.08307437       1.96083833
H        5.60939268       7.43757890       1.96318363
O        7.90302987       5.20731392       5.97810331
H        7.86948633       5.21506663       6.95616314
H        7.09439030       5.66590162       5.67035386
O        5.64168337       6.48936605       5.06037914
H        5.63419919       6.52533266       4.08223831
H        5.63798958       7.41837394       5.37010414
O        5.63089108       9.12407233       1.37555613
H        4.84554049       9.60772564       1.70400884
H        6.41546793       9.60112746       1.71445183
O        7.89185961      10.41736374       2.29921425
H        8.69457467       9.96986072       1.96234783
H        7.92133424      11.33560198       1.96129343
O        5.63226327       9.09004394       5.97444586
H        5.65207277       9.11718769       6.95271087
H        6.43600611       9.55872509       5.66915993
O        7.87734545      10.40563703       5.06224966
H        7.90752658      10.39735300       4.08400544
H        8.68646026       9.94730010       5.36875472
O        7.90881925      13.01923641       1.37443137
H        7.87584519      13.02897475       0.39609483
H        7.10221315      13.48440831       1.67744464
O        5.64322245      14.32588610       2.25973831
H        4.83851645      13.88344999       1.92083372
H        5.61462198      15.24669646       1.92807320
O        7.87557501      13.01032288       5.97349076
H        7.07068657      13.44613380       5.62564616
H        7.85638962      12.08881565       5.64389223
O        5.62846609      14.29231270       5.02143932
H        5.63098711      14.33325243       4.04346532
H        5.63279665      15.21940956       5.33631695
O       10.13677663       1.28238774       1.41480466
H       10.16823938       0.36249469       1.74839793
H       10.94501446       1.72576743       1.74422832
O       12.39755172       2.58832256       2.30463852
H       12.39553109       2.62363335       3.28275220
H       12.39131933       3.51693366       1.99430341
O       10.14135492       1.32320002       6.01310148
H       10.14361732       1.28195283       6.99109476
H       10.13494674       0.39557026       5.69931828
O       12.39298365       2.61053662       5.06723910
H       11.58713744       2.17638351       5.41429530
H       12.37821333       3.53087524       5.40042772
O       12.38613802       5.18859753       1.38126915
H       12.41251019       5.21312770       0.40316044
H       13.18822899       5.65754318       1.69038563
O       10.13467168       6.49222539       2.29922780
H        9.34753784       6.01646706       1.96426733
H       10.91704241       6.01041150       1.96109724
O       12.40060996       5.21737671       5.97918231
H       11.61823934       5.69919202       5.64107318
H       13.18773346       5.69312446       5.64415810
O       10.14919491       6.52111145       5.06126421
H       10.12285142       6.49652328       4.08314670
H        9.34712008       6.05214821       5.37039340
O       10.14240730       9.09910733       1.38717651
H       10.15718407       8.17874684       1.72029820
H       10.94824714       9.53326458       1.73425157
O       12.39396611      10.38660107       2.33308686
H       12.39176689      10.42783335       3.31107069
H       12.40039072      11.31423985       2.01932818
O       10.13776301       9.12141761       5.98461822
H       10.13984847       9.08609720       6.96273869
H       10.14400394       8.19280909       5.67426355
O       12.39866416      10.42725338       5.09486883
H       11.59041563       9.98386819       5.42424660
H       12.36716862      11.34713635       5.42850039
O       12.40835659      12.98474313       1.41281797
H       12.41822651      13.01248190       0.43428786
H       13.21179606      13.46086902       1.70743319
O       10.15946260      14.29216042       2.33395661
H        9.37513761      13.82511569       1.98022382
H       10.94393806      13.80859187       2.00365348
O       12.37579734      13.03039003       6.01386747
H       11.59132096      13.51397868       5.68360217
H       13.16010415      13.49744800       5.66009075
O       10.12696829      14.33793363       5.09286491
H       10.11708052      14.31012359       4.11432418
H        9.32354272      13.86183479       5.38754342
O        1.13676577       1.30409021       8.74221536
H        1.10662131       1.31242347       7.76397661
H        0.32765532       1.76244185       9.04870297
O        3.38185100       2.61962929       9.65444947
H        3.36202347       2.59254105      10.63270765
H        2.57808966       2.15096356       9.34918599
O        1.12237842       1.29236959      13.33906317
H        0.31968509       1.73987634      13.00215556
H        1.09287396       0.37412753      13.00115822
O        3.38328598       2.58573193      12.41562282
H        2.59871232       2.10867946      12.75455546
H        4.16862909       2.10205522      12.74404778
O        3.37243372       5.22029723       8.74039472
H        3.37985050       5.18434606       7.76226241
H        3.37612359       4.29127438       9.05009167
O        1.11111944       6.50233644       9.65814388
H        1.14462109       6.49453991      10.63620233
H        1.91975796       6.04373599       9.35042225
O        3.38744138       5.19152901      13.33864529
H        3.40467330       4.27220015      13.00307765
H        4.19679624       5.62669534      13.00081790
O        1.13951916       6.51309352      12.42165917
H        1.94300007       6.06721246      12.75870304
H        1.16488080       7.43124546      12.75988143
O        1.12112514       9.10656246       8.74557959
H        0.31669826       9.54333782       9.09355728
H        1.09936203       8.18503812       9.07501742
O        3.37328482      10.43269658       9.63148463
H        3.35671836      10.40781303      10.60992780
H        2.57162611       9.95598357       9.33306937
O        1.14027386       9.11629816      13.34521571
H        1.11061000       9.12628022      14.32371925
H        0.33309068       9.58113394      13.04345507
O        3.38947185      10.39260317      12.39158266
H        2.60248544       9.92665542      12.74115149
H        4.17088460       9.91084979      12.73156465
O        3.38564024      13.03016455       8.70142761
H        3.38305049      12.98923314       7.72346191
H        3.38129502      12.10306202       9.01628753
O        1.13857961      14.31231869       9.65343469
H        1.94345392      13.87646195       9.30563642
H        1.15779415      15.23382587       9.32382352
O        3.37076500      12.99673283      13.29966694
H        3.39939356      12.07594441      12.96795981
H        4.17548790      13.43917688      12.96080782
O        1.10517730      14.30341011      12.41433774
H        1.13821832      14.29368825      11.43599330
H        1.91174607      13.83822674      12.71741943
O        5.62469559       1.31711720       8.71152842
H        4.84328558       1.79886843       9.05153539
H        6.41169980       1.78305731       9.06103766
O        7.87398211       2.59332585       9.66513890
H        7.90358937       2.58332558      10.64363473
H        8.68119836       2.12850203       9.36343688
O        5.64081692       1.27691568      13.31145153
H        5.65739143       1.30187114      14.28990423
H        6.44246617       1.75360237      13.01297993
O        7.89297266       2.60307997      12.42554665
H        8.69740750       2.16634905      12.77357568
H        7.91471210       3.52461027      12.75496146
O        7.87451175       5.19655641       8.74156187
H        7.07101039       5.64243603       9.07855699
H        7.84917088       4.27840623       9.07978892
O        5.62661706       6.51823815       9.65868669
H        4.81725856       6.08307182       9.32083904
H        5.60939072       7.43757560       9.32318390
O        7.90302843       5.20731500      13.33810036
H        7.86948631       5.21506653      14.31616441
H        7.09439133       5.66590086      13.03035424
O        5.64168377       6.48936645      12.42038076
H        5.63419841       6.52533249      11.44223741
H        5.63799055       7.41837451      12.73010416
O        5.63088932       9.12407186       8.73555627
H        4.84554056       9.60772537       9.06400804
H        6.41546736       9.60112648       9.07445168
O        7.89185899      10.41736451       9.65921409
H        8.69457534       9.96985994       9.32234786
H        7.92133362      11.33560175       9.32129374
O        5.63226386       9.09004176      13.33444593
H        5.65207418       9.11718727      14.31271183
H        6.43600802       9.55872512      13.02915973
O        7.87734294      10.40563813      12.42224879
H        7.90752609      10.39735313      11.44400490
H        8.68646184       9.94729940      12.72875580
O        7.90881818      13.01923733       8.73443271
H        7.87584608      13.02897445       7.75609448
H        7.10221509      13.48440755       9.03744522
O        5.64322246      14.32588593       9.61973749
H        4.83851872      13.88345038       9.28083262
H        5.61462351      15.24669563       9.28807364
O        7.87557532      13.01032222      13.33349192
H        7.07068603      13.44613383      12.98564579
H        7.85638842      12.08881520      13.00389238
O        5.62846736      14.29231081      12.38143863
H        5.63098774      14.33325174      11.40346570
H        5.63279740      15.21941117      12.69631607
O       10.13677285       1.28238471       8.77479907
H       10.16823762       0.36249428       9.10839449
H       10.94501511       1.72576593       9.10421377
O       12.39755924       2.58831756       9.66460863
H       12.39553435       2.62362981      10.64272189
H       12.39132643       3.51693327       9.35427652
O       10.14135552       1.32320161      13.37310181
H       10.14362370       1.28195623      14.35109433
H       10.13494690       0.39556972      13.05932038
O       12.39297117       2.61054347      12.42720361
H       11.58713041       2.17638726      12.77426983
H       12.37820719       3.53087858      12.76040143
O       12.38613898       5.18859812       8.74126595
H       12.41251233       5.21313468       7.76315602
H       13.18823058       5.65754408       9.05038527
O       10.13467306       6.49222565       9.65922715
H        9.34753761       6.01646685       9.32426660
H       10.91704315       6.01041093       9.32109638
O       12.40060964       5.21737509      13.33918241
H       11.61823754       5.69919233      13.00107458
H       13.18773212       5.69312375      13.00416018
O       10.14919339       6.52111393      12.42126435
H       10.12285083       6.49652520      11.44314604
H        9.34711860       6.05215009      12.73039260
O       10.14240775       9.09910753       8.74717629
H       10.15718512       8.17874746       9.08029824
H       10.94824817       9.53326574       9.09425142
O       12.39396691      10.38660285       9.69308691
H       12.39176725      10.42783510      10.67107008
H       12.40039121      11.31424240       9.37932721
O       10.13776142       9.12141797      13.34461724
H       10.13984735       9.08609734      14.32273956
H       10.14400164       8.19280969      13.03426350
O       12.39866186      10.42724980      12.45486901
H       11.59041560       9.98386620      12.78424554
H       12.36716665      11.34713408      12.78850157
O       12.40835535      12.98474497       8.77281572
H       12.41822128      13.01248084       7.79428510
H       13.21179555      13.46086938       9.06742444
O       10.15946323      14.29216156       9.69395567
H        9.37513964      13.82511644       9.34022427
H       10.94393894      13.80859381       9.36365328
O       12.37579633      13.03038805      13.37386802
H       11.59132118      13.51397597      13.04360432
H       13.16010470      13.49744095      13.02008325
O       10.12696815      14.33793280      12.45286530
H       10.11708087      14.31012342      11.47432570
H        9.32354157      13.86183312      12.74754351
