288
Lattice="13.52118 0.0 0.0 0.0 15.61292 0.0 0.0 0.0 14.72" Properties=species:S:1:pos:R:3 ipi_comment="Step:          37  Bead:       0 positions{angstrom}  cell{angstrom}" pbc="T T T"
O        1.12224790       1.33473088       1.38691410
H        1.09094456       1.34156565       0.40817468
H        0.31380639       1.79297826       1.69410035
O        3.38648094       2.60762815       2.29265010
H        2.59748905       2.13471592       1.95653158
H        4.16739131       2.12586596       1.95154378
O        1.13620478       1.32535825       5.97681227
H        1.15354972       0.40400657       5.64725940
H        1.94183734       1.75851878       5.62624621
O        3.38492988       2.60463511       5.04943230
H        3.40963300       2.59222933       4.07081556
H        4.19331435       2.14391873       5.35495712
O        3.35400872       5.21021901       1.38535599
H        2.54629921       5.64266446       1.72996914
H        3.34510331       4.28990649       1.71938581
O        1.10004375       6.50474922       2.30747224
H        0.29290295       6.06964787       1.96499964
H        1.09717550       7.42069650       1.96199445
O        3.37627715       5.20854495       5.96142146
H        3.37475775       5.17998042       6.93975352
H        3.37996083       4.27739685       5.65911172
O        1.11626362       6.51381680       5.06141561
H        1.13353040       6.50026819       4.08286657
H        1.92239541       6.04687219       5.36227698
O        1.15212997       9.10019471       1.37501233
H        1.17783840       9.12528112       0.39680157
H        1.95185584       9.56833203       1.68944919
O        3.38761569      10.42899233       2.32372964
H        3.38262128      10.45030360       3.30177398
H        3.37979144      11.35933549       2.01998400
O        1.12410723       9.10839828       5.99642857
H        0.31615130       9.54784100       5.66149672
H        1.10168349       8.19274688       5.65066745
O        3.38669301      10.41513159       5.09514387
H        2.60004394       9.93470369       5.42442883
H        4.16938236       9.92522735       5.41933553
O        3.37526656      13.02796300       1.38451188
H        3.35916714      13.03204447       0.40601705
H        2.57209671      13.50358138       1.67938581
O        1.12731432      14.34306492       2.29470294
H        1.13309097      14.35781889       3.27328599
H        1.11994926      15.27655961       2.00042598
O        3.36976242      13.01679215       6.01288909
H        3.37190946      12.99203073       6.99134515
H        3.37999481      12.08457397       5.71361865
O        1.13778196      14.32978342       5.05898695
H        0.35066041      13.85007789       5.38767055
H        1.91638958      13.84913072       5.40666829
O        5.63071216       1.29040724       1.37290916
H        5.65491095       0.37187188       1.71031956
H        6.43472270       1.73091535       1.71684543
O        7.87478072       2.58305211       2.32134498
H        7.90679448       2.57158571       3.29967972
H        8.68192740       2.12430113       2.01174722
O        5.62712636       1.30747147       5.97487691
H        5.65391464       1.31464827       6.95325324
H        6.44272200       1.75990739       5.67582040
O        7.89878626       2.58337683       5.08272799
H        8.70404057       2.14078220       5.42181848
H        7.92993539       3.50507052       5.41108436
O        7.89457389       5.19026959       1.39699910
H        7.08217115       5.63194170       1.71836593
H        7.87031451       4.27432431       1.74040289
O        5.62598079       6.48945944       2.27777373
H        4.81386218       6.05805802       1.94209091
H        5.60485823       7.41238871       1.95199983
O        7.91716713       5.19489457       5.98149468
H        7.12846593       5.66021251       5.63601315
H        8.69433357       5.67802461       5.63388406
O        5.65863976       6.48298588       5.04059130
H        5.62227134       6.47281934       4.06266213
H        4.84969028       6.02818685       5.35091739
O        5.61293479       9.09881929       1.38058796
H        4.83718336       9.58419393       1.72848639
H        6.40299205       9.57711874       1.70444940
O        7.87088730      10.42036440       2.27892271
H        8.68175825       9.97887969       1.95406747
H        7.89984621      11.33614812       1.93449393
O        5.64463276       9.08244386       5.98366074
H        5.67474579       8.16976513       5.63193674
H        6.43868676       9.53973241       5.63955970
O        7.86986925      10.42129545       5.04524039
H        7.87571529      10.44467443       4.06677493
H        7.86533183      11.35395348       5.34286705
O        7.90639200      13.02020761       1.34688983
H        7.12162773      13.49056126       1.69479403
H        8.69221891      13.49058830       1.69236977
O        5.65258315      14.30052877       2.29833915
H        5.61411566      14.29080236       3.27629585
H        4.84259665      13.84739029       1.98734591
O        7.87128409      13.03087962       5.94664023
H        7.84826186      13.03121111       6.92533856
H        7.05941725      13.49274094       5.65248335
O        5.60387012      14.31952453       5.05816144
H        4.80306924      13.87977600       5.40986534
H        5.58576126      15.24074468       5.38869203
O       10.13355385       1.28947159       1.38721023
H       10.13033890       1.27244758       0.40878464
H       10.14632224       0.35531364       1.67947309
O       12.37370628       2.60982749       2.31070367
H       12.35779373       2.59949154       3.28912992
H       11.57225581       2.13388687       2.01157947
O       10.14529841       1.27912541       5.98956723
H       10.16617559       1.29238893       6.96838766
H       10.95026567       1.75009250       5.69088946
O       12.38284316       2.60338830       5.07790089
H       13.19760939       2.17091651       5.40566413
H       12.40250284       3.52386456       5.41068310
O       12.37557123       5.20411500       1.36954665
H       12.39667871       5.16836616       0.39135360
H       12.37845276       4.27709477       1.68441213
O       10.14448779       6.52183489       2.28586744
H        9.35648138       6.03820636       1.96453037
H       10.92361272       6.03703825       1.94313371
O       12.38556019       5.21094973       5.98134184
H       11.60465935       5.68759401       5.63251656
H       13.17208043       5.68894872       5.64761539
O       10.14853463       6.51747696       5.04137812
H       10.14992790       6.54427718       4.06274424
H       10.13386752       7.44613143       5.35035100
O       10.14241897       9.12706856       1.39168266
H       10.15832788       8.20371275       1.71679193
H       10.95395928       9.55486828       1.73337449
O       12.41537739      10.38524254       2.31092323
H       13.22251198       9.94764581       1.97173480
H       12.44076131      11.30375864       1.97243895
O       10.11071827       9.10811613       5.98221359
H       10.09822361       9.12518255       6.96028462
H        9.30887089       9.58263407       5.68245868
O       12.38195954      10.39017448       5.06875797
H       12.37111238      10.37223060       4.09022060
H       11.56988427       9.93368475       5.36804160
O       12.42227321      12.98287028       1.38446272
H       12.42838657      13.01681492       0.40625214
H       13.21602444      13.47132425       1.68337225
O       10.16376629      14.29437537       2.28890887
H       10.17840014      14.28510336       3.26788857
H       10.97036840      13.82578173       1.99282592
O       12.40492546      13.00392565       5.96199161
H       11.59644021      13.44033546       5.62447671
H       12.37793252      12.08243443       5.63324333
O       10.14394729      14.29712899       5.04264050
H        9.32950762      13.86573581       5.37396734
H       10.13063195      15.21277546       5.38835248
O        1.13244953       1.32191923       8.73615172
H        1.15998188       1.33580659       7.75774436
H        1.94777846       1.76790216       9.04355203
O        3.40895756       2.58347524       9.66047650
H        3.41811459       2.56928041      10.63890090
H        4.21697561       2.11655024       9.36466455
O        1.10571915       1.31862965      13.35242386
H        0.29751122       1.74876035      13.00450562
H        1.09630095       0.39980575      13.01506304
O        3.37289636       2.59037220      12.42618255
H        2.56014725       2.15782338      12.75878804
H        3.35041676       3.51032455      12.76066570
O        3.36881166       5.18114424       8.72877464
H        3.40153210       4.26469186       9.07165255
H        4.17283414       5.62544773       9.06673419
O        1.12305586       6.50319280       9.65043283
H        0.33554894       6.02601019       9.31885164
H        1.90398488       6.01713995       9.31608367
O        3.37060822       5.18709033      13.34794722
H        3.33796565       5.20796684      14.32603651
H        2.57883470       5.67008794      13.03478352
O        1.14220875       6.52260953      12.41608319
H        1.14004171       6.54285309      11.43774413
H        1.13667211       7.45460478      12.71493673
O        1.13104105       9.11580639       8.75606829
H        1.12322840       9.09154768       7.77742823
H        1.12030745       8.18273777       9.05220973
O        3.38587338      10.40710394       9.66622642
H        2.60055638       9.92620346       9.33261562
H        4.16744974       9.93184235       9.31685172
O        1.13970102       9.13133548      13.33237438
H        0.35234015       9.61745022      13.01287254
H        1.92143194       9.61078778      12.99048071
O        3.40136552      10.43119763      12.41927830
H        3.42197619      10.40768697      11.44059172
H        4.19094799       9.94016807      12.72464080
O        3.37624959      13.01502011       8.77583567
H        2.56619397      13.45631230       9.10372282
H        3.35312691      12.09554590       9.11120234
O        1.12246631      14.32884405       9.66589611
H        0.31585821      13.89462039       9.31912645
H        1.11388011      15.24509106       9.32238613
O        3.38155025      13.02844655      13.33787576
H        3.41063067      12.10908378      13.00197501
H        4.19242620      13.46653405      13.00853850
O        1.12950330      14.33421297      12.41878275
H        1.15138595      14.32088179      11.44007552
H        1.93479562      13.86704359      12.72148553
O        5.66192937       1.28704028       8.73802026
H        5.68007026       0.36624375       9.07020748
H        6.46780398       1.72488997       9.07990055
O        7.90680025       2.59276225       9.67128655
H        7.89225810       2.62365973      10.64994487
H        7.89952420       3.52187184       9.36277390
O        5.62856708       1.30347238      13.33677699
H        5.60751226       1.31069596      14.31539391
H        4.81498258       1.75906131      13.03690770
O        7.87763055       2.59812456      12.42385981
H        7.06524345       2.16478151      12.75776367
H        7.86920149       3.51244475      12.77355636
O        7.89841688       5.19280095       8.74761295
H        7.92001652       5.20308289       7.76917802
H        8.69778370       5.67286890       9.04528400
O        5.62682787       6.48143598       9.65369745
H        5.64812371       6.46558145      10.63189264
H        6.43634159       6.02075114       9.35321742
O        7.90071414       5.19084101      13.36024151
H        7.92679695       5.20501184      14.33860060
H        8.70306504       5.65963619      13.05208473
O        5.63578017       6.46230298      12.42117643
H        4.85131171       5.98444416      12.75950811
H        6.42150276       5.99176808      12.76604747
O        5.62790898       9.09282843       8.74498379
H        5.64308367       9.06571490       7.76660510
H        5.63215169       8.16200677       9.04750175
O        7.86697906      10.43278612       9.67280684
H        7.84272320      10.40920251      10.65109556
H        7.07508852       9.94731143       9.36501190
O        5.62236069       9.06501915      13.33809094
H        5.61028090       9.04972594      14.31649632
H        5.62132849       8.13183336      13.04184320
O        7.86799388      10.38393384      12.43397379
H        7.08820956       9.89700966      12.77094212
H        8.65704535       9.90992831      12.76605655
O        7.86877268      13.01657163       8.70639601
H        7.06734346      13.45653406       9.05820351
H        7.85043184      12.10233781       9.05576994
O        5.63716017      14.30381148       9.66165355
H        5.62046220      14.29709560      10.64064620
H        4.82214234      13.84740956       9.36695755
O        7.90230536      12.99998117      13.31079071
H        7.90830843      12.98722139      14.28968469
H        7.88489169      12.06481766      13.02170441
O        5.64809640      14.31267659      12.41346722
H        6.45708676      13.87229495      12.74505232
H        5.66609454      15.23101693      12.75150340
O       10.14012272       1.28817000       8.74507574
H        9.36134348       1.77302450       9.08841258
H       10.92911269       1.75841316       9.08390437
O       12.39024219       2.58950414       9.66366749
H       13.20210363       2.15723917       9.32754633
H       12.40531378       3.50722742       9.32336630
O       10.12956737       1.29375680      13.33585444
H        9.31991916       1.73420044      13.00559279
H       10.10894596       0.38106092      12.98220509
O       12.37812020       2.59427198      12.41616866
H       12.35693317       2.57796798      11.43742201
H       11.56855484       2.13539586      12.72149396
O       12.38901675       5.18869345       8.73842610
H       12.36099446       5.20875595       7.76010387
H       11.59227688       5.66606725       9.04635206
O       10.14320531       6.52212108       9.65487311
H       10.14462208       6.53609540      10.63315945
H       10.14317189       7.45717658       9.36562070
O       12.41714598       5.19701630      13.33463415
H       12.42851002       4.28177300      12.98785668
H       13.22359771       5.63792598      12.99868293
O       10.14796323       6.49976927      12.42906903
H       10.95954608       6.06166914      12.75578798
H       10.17262928       7.41662609      12.77140207
O       10.13624605       9.13791164       8.75809791
H        9.35236673       9.61299542       9.10040014
H       10.92170765       9.62043950       9.08622956
O       12.40112602      10.44245412       9.68042537
H       13.20156639       9.98885921       9.34760556
H       12.43263125      11.35507458       9.32802044
O       10.14345814       9.10158721      13.35138912
H       10.16598504       9.12413616      14.32971835
H       10.94017323       9.58179328      13.04744591
O       12.39258323      10.43786665      12.44803337
H       12.39044610      10.46268754      11.46975290
H       12.38964189      11.37069105      12.74530985
O       12.41071837      13.03225997       8.72285133
H       12.38631940      13.03135723       7.74426211
H       11.59018130      13.47826782       9.01854918
O       10.13433750      14.29242183       9.61660231
H        9.32523759      13.85921783       9.27537535
H       10.11270056      15.21681759       9.29390433
O       12.39335798      13.04867843      13.34296917
H       11.60923037      13.52155484      12.99758771
H       13.17882401      13.52323318      13.00199665
O       10.13770222      14.32065872      12.37928625
H       10.11606182      14.29673443      11.40100636
H        9.34184011      13.83959687      12.68543544
