576
Lattice="18.02824 0.0 0.0 0.0 23.419379999999997 0.0 0.0 0.0 14.72" Properties=species:S:1:pos:R:3 ipi_comment="Step:          35  Bead:       0 positions{angstrom}  cell{angstrom}" pbc="T T T"
O        1.09847476       1.30371654       1.38567857
H        1.08578585       1.31714109       0.40684945
H        0.29429568       1.77475937       1.68429721
O        3.36798809       2.57850190       2.29471699
H        3.34190248       2.57592203       3.27328555
H        2.55335375       2.12592161       1.99466924
O        1.12422195       1.26742840       5.99268903
H        1.12095690       1.24986719       6.97123844
H        1.12083140       0.33530808       5.69438325
O        3.35328039       2.60104533       5.05650480
H        2.57780663       2.11560296       5.40473540
H        4.14262686       2.12856791       5.39177133
O        3.39987008       5.18104859       1.37711325
H        3.38542554       5.15752768       0.39863266
H        3.38984545       4.24965711       1.67853797
O        1.16341824       6.50495985       2.29846766
H        1.16848225       6.49176396       3.27701924
H        1.96545650       6.02756988       2.00353648
O        3.38770049       5.21446418       5.95313391
H        2.57556649       5.65515074       5.63016786
H        3.35293577       4.29224145       5.62694375
O        1.11849758       6.50485209       5.05782527
H        0.31550414       6.06733398       5.40616202
H        1.10277897       7.42656004       5.38689828
O        1.12299205       9.09261757       1.35754130
H        1.16081479       8.17639510       1.70073723
H        1.91925980       9.54608287       1.70205756
O        3.36322658      10.40550133       2.28856064
H        3.38049783      10.43397781       3.26659086
H        3.36901705      11.33743380       1.98761906
O        1.13922593       9.11953920       5.95357447
H        0.35634660       9.60179869       5.61702294
H        1.92543866       9.59577700       5.61749774
O        3.39962798      10.42997625       5.05360053
H        4.20193148       9.98169890       5.39018798
H        3.42274679      11.34447788       5.40080020
O        3.37901308      13.01090101       1.39029544
H        2.60006681      13.49401199       1.73555123
H        4.16759678      13.48865499       1.71927511
O        1.13737210      14.31214733       2.31405695
H        1.13103157      14.34021146       3.29263782
H        1.12328618      15.24204991       2.00855474
O        3.39532782      13.03471866       5.98929323
H        3.36649145      13.04069425       6.96758586
H        2.58017600      13.48545207       5.68697120
O        1.12670723      14.31486042       5.07376187
H        0.31606613      13.87796648       5.40609362
H        1.10445186      15.23485692       5.40857006
O        1.11749161      16.91554974       1.38696341
H        1.10883971      16.91936694       0.40831259
H        0.30748867      17.38642961       1.67100133
O        3.37685998      18.22078806       2.30827766
H        3.34942894      18.20284137       3.28651587
H        2.57278260      17.75709391       1.99821096
O        1.12006597      16.91694913       5.96930514
H        1.13295372      16.93982599       6.94801463
H        1.92933133      17.38240671       5.67241065
O        3.37131910      18.21519196       5.06685477
H        4.18011566      17.77912709       5.40620268
H        3.39336241      19.13463181       5.40237142
O        3.39178425      20.82856262       1.38166313
H        3.39845812      19.90989481       1.71907714
H        4.20273029      21.25538367       1.72613501
O        1.13229731      22.11989591       2.30764745
H        1.94565042      21.68967421       1.97372826
H        1.14361768      23.04025514       1.97500465
O        3.38952390      20.81437132       5.99222908
H        3.35591649      20.82645410       6.97040050
H        2.57829376      21.26630547       5.68246319
O        1.11230896      22.08037171       5.07647149
H        1.09859558      22.08336716       4.09817684
H        0.30334270      21.61061427       5.36559601
O        5.62691317       1.28417471       1.38331798
H        4.81410066       1.71598708       1.71685387
H        5.61519543       0.36815544       1.72755932
O        7.87654661       2.60663865       2.28937918
H        7.85737560       2.58483694       3.26769692
H        7.07349111       2.13443047       1.98833981
O        5.61085695       1.30165439       5.97455999
H        5.61787402       1.27678315       6.95296622
H        5.62162256       0.36872880       5.67677338
O        7.86729909       2.59685388       5.05539334
H        7.08177760       2.12340681       5.39784088
H        8.64916646       2.11189920       5.38783871
O        7.89758937       5.21728335       1.39931214
H        7.08636138       5.65212102       1.73369205
H        7.87403951       4.29546675       1.72879345
O        5.63237965       6.49788109       2.30466024
H        4.83532160       6.04641488       1.95899577
H        5.60167260       7.41415646       1.96059631
O        7.90533163       5.20603108       5.97707589
H        7.09800894       5.64741221       5.64173910
H        7.87528399       4.28672807       5.64323464
O        5.65357997       6.50178535       5.05912562
H        5.62787791       6.49431893       4.08024262
H        4.84030851       6.04439082       5.35596980
O        5.60716503       9.08765105       1.36863170
H        5.59526110       9.10697759       0.39017965
H        4.80537940       9.56195270       1.66944083
O        7.85839907      10.39629469       2.30075870
H        7.07702667       9.91425326       1.96219687
H        8.64818030       9.92841282       1.96123489
O        5.64034167       9.10529826       5.98917481
H        5.66093710       8.18851346       5.64683877
H        6.44976665       9.54374372       5.65584369
O        7.88800597      10.40602206       5.05774413
H        7.87788709      10.42500671       4.07913728
H        7.88614031      11.33992430       5.35165314
O        7.88611749      12.99821060       1.36584959
H        7.08813745      13.44887584       1.71002164
H        7.85250495      12.08057713       1.70428490
O        5.64139256      14.31189248       2.29412081
H        5.63801673      14.34509116       3.27241055
H        5.64380585      15.24321405       1.99152195
O        7.88493297      13.02033798       5.93732765
H        7.10265280      13.50671766       5.60581406
H        8.67097460      13.50070955       5.60576760
O        5.63213716      14.34536650       5.05339767
H        4.82972324      13.89941619       5.39418691
H        5.60873483      15.25901178       5.40312528
O        5.64255554      16.92225192       1.40550834
H        4.85323703      17.39788657       1.73530163
H        6.42332253      17.40682967       1.74307373
O        7.89125756      18.23058928       2.31920004
H        8.68844167      17.78157560       1.97107103
H        7.92316595      19.14952230       1.98168786
O        5.61864762      16.94051090       6.00447212
H        5.64841324      16.94610258       6.98280381
H        6.43162139      17.39151260       5.69697292
O        7.87969417      18.21019557       5.07651401
H        7.89960320      18.20242189       4.09768366
H        8.68930215      17.74686476       5.37517948
O        7.91049936      20.82014079       1.38861207
H        7.91698115      20.83445914       0.41001763
H        8.71767352      21.29406259       1.67686538
O        5.64722238      22.10317907       2.32159110
H        5.67120585      22.09195466       3.30006512
H        6.45861419      21.64903346       2.01630226
O        7.89864987      20.80689041       5.98389604
H        7.91610759      19.88646195       5.64921218
H        8.70068679      21.24303690       5.63032502
O        5.64534683      22.11284693       5.08362530
H        4.85867440      21.63529700       5.41764597
H        6.42911587      21.63363899       5.42216948
O       10.14807706       1.31861155       1.37000260
H       10.12369072       1.33921770       0.39147846
H        9.33652108       1.77119392       1.67718297
O       12.39717303       2.60649355       2.30581743
H       11.59138846       2.16612494       1.96608452
H       12.37217091       3.52285715       1.96253411
O       10.12245346       1.27462857       5.97403665
H       10.15715213       0.35779849       5.63350962
H       10.92637960       1.72433069       5.64384216
O       12.38552012       2.59549257       5.07225453
H       12.38988630       2.62233824       4.09392734
H       12.38632598       3.52809713       5.36976315
O       12.37845397       5.20486967       1.36655151
H       11.60089597       5.69254059       1.70680182
H       13.16866143       5.66836820       1.71218377
O       10.14534387       6.52638251       2.30816320
H        9.33931000       6.08114265       1.97543428
H       10.11813547       7.44378518       1.96810531
O       12.40672952       5.20948543       5.96951681
H       11.62194821       5.69158563       5.63808779
H       13.19161964       5.68915585       5.63546895
O       10.15199883       6.52362965       5.06798370
H       10.12672789       6.51333994       4.08938100
H        9.35076909       6.04768524       5.36863900
O       10.12977623       9.12522442       1.37966516
H       10.16278229       9.13150777       0.40130627
H       10.93907073       9.57929440       1.69040591
O       12.40864412      10.39038215       2.30511020
H       12.42706237      10.38518983       3.28335009
H       13.21307778       9.91983664       2.00579964
O       10.14156713       9.11898195       6.00009015
H        9.33770988       9.55561298       5.65193718
H       10.12319237       8.19958710       5.66356738
O       12.40386820      10.40439390       5.07512954
H       11.59548864       9.96674069       5.41201134
H       12.37545804      11.32782336       5.39830142
O       12.39027895      12.99395778       1.38379700
H       12.38586105      12.97369267       0.40512581
H       12.39717743      12.06318745       1.68622212
O       10.13922258      14.31826009       2.27507303
H        9.35620736      13.83162825       1.94612474
H       10.92517126      13.83315246       1.95010165
O       12.38007609      13.01653473       5.97606510
H       11.59904272      13.49914892       5.63652376
H       13.16685592      13.49201580       5.64049532
O       10.13931885      14.33095241       5.03707693
H       10.13987634      14.35623169       4.05883786
H       10.13853750      15.26039473       5.34484839
O       10.13406059      16.92321562       1.38426819
H       10.14388740      16.90182962       0.40532210
H       10.13144728      15.98857022       1.67662224
O       12.37472841      18.21548937       2.32585944
H       12.34936861      18.20422629       3.30440392
H       11.56755325      17.75553900       2.01625370
O       10.13647213      16.92074206       5.97474739
H       10.15758662      16.92105673       6.95339638
H       10.94708259      17.38783974       5.68364348
O       12.38431490      18.21505099       5.08056011
H       13.19528074      17.77438809       5.40781244
H       12.41412539      19.13552276       5.41500824
O       12.41276474      20.80732916       1.37854173
H       12.41542007      19.89391491       1.73065120
H       13.22508083      21.23985001       1.71291560
O       10.16652699      22.12685285       2.27483652
H       10.97387452      21.68740754       1.93765366
H       10.18460076      23.04725715       1.94281990
O       12.40722594      20.80793287       5.98059060
H       12.42007419      20.83772729       6.95887695
H       13.20850142      21.28153107       5.67591554
O       10.14918414      22.09134693       5.03791031
H       10.17786387      22.08887492       4.05961696
H       10.95772159      21.63231656       5.34365604
O       14.64660969       1.29847103       1.38751104
H       13.86033909       1.77087627       1.72996768
H       15.42633412       1.78692656       1.72202615
O       16.88250512       2.62993801       2.30447705
H       16.89755192       2.64601625       3.28279689
H       16.89760441       3.56228141       2.00685566
O       14.65066507       1.29472749       5.97201153
H       14.62884842       1.30083537       6.95059084
H       13.84520545       1.76424976       5.67340403
O       16.91409355       2.60153800       5.06908979
H       16.12660822       2.12138895       5.39687088
H       17.69434568       2.11168983       5.39977998
O       16.91665775       5.23323605       1.39067546
H       16.93677264       5.23346596       0.41200219
H       17.73072386       5.68935189       1.68636437
O       14.63461372       6.48195744       2.29644104
H       14.66549754       6.48483547       3.27503811
H       15.45067273       6.03232729       1.99555351
O       16.89731508       5.20289920       6.00397894
H       16.89062213       5.17631037       6.98231927
H       16.90307353       4.27250628       5.69977948
O       14.66242838       6.51788406       5.05221355
H       15.45886895       6.06981627       5.40290044
H       14.68982651       7.43765492       5.38617435
O       14.65700892       9.08249836       1.38203610
H       14.64954886       9.06843562       0.40324800
H       14.64890530       8.14916833       1.67761379
O       16.90370562      10.39947997       2.28837968
H       16.11834144       9.92025035       1.95327700
H       17.68503685       9.91506683       1.95169734
O       14.67181773       9.11948898       5.97339750
H       14.64997782       9.12317281       6.95217256
H       13.85818072       9.57823146       5.67956523
O       16.91533912      10.42700919       5.04894792
H       16.88927488      10.40486966       4.07062110
H       16.11358731       9.95725718       5.35758455
O       16.90829909      13.00696912       1.37669222
H       16.92971459      12.08829976       1.71402784
H       17.71144476      13.44857261       1.71915711
O       14.64300445      14.30998509       2.29423146
H       13.86147824      13.82489588       1.95955586
H       15.42966609      13.83785481       1.95401968
O       16.89197451      13.02346445       5.97905856
H       16.88537516      12.98934853       6.95702691
H       16.89910412      12.09477518       5.66883763
O       14.63892480      14.32913000       5.05787507
H       14.66394803      14.30825563       4.07983443
H       15.43933376      13.85664406       5.36514081
O       14.62265154      16.92378789       1.39724613
H       13.81440042      17.35816881       1.73936715
H       14.61068574      16.00611177       1.73714114
O       16.89046411      18.22609678       2.27266230
H       16.07522939      17.79259396       1.94731213
H       16.87577884      19.14593651       1.93881468
O       14.64239879      16.92307812       5.98824407
H       14.65471018      16.00519083       5.64702633
H       15.44850258      17.35404516       5.63715601
O       16.89246181      18.18768559       5.02938860
H       16.91759940      18.18420136       4.05094262
H       17.70490081      17.73526135       5.33573832
O       16.91376427      20.83389288       1.36105306
H       16.93943462      20.84543268       0.38276597
H       17.72437802      21.28853605       1.66942825
O       14.66109232      22.10841349       2.29512843
H       15.47252944      21.67852759       1.95456775
H       14.67399248      23.02729120       1.95796090
O       16.88102998      20.77883882       5.97262230
H       16.07805256      21.22774275       5.63817219
H       16.85747160      19.86344280       5.62636785
O       14.64688320      22.11093768       5.05571808
H       14.65232813      22.13601756       4.07711344
H       14.65482426      23.04217374       5.35803033
O        1.10954700       1.29025562       8.75313481
H        0.32805294       1.77670139       9.08690670
H        1.89646790       1.77257828       9.07846616
O        3.37422783       2.61099561       9.63841946
H        4.17734526       2.16581870       9.29984129
H        3.40234707       3.52891422       9.30032616
O        1.12338181       1.29469368      13.34876736
H        1.14958839       0.37499895      13.01427198
H        1.92789993       1.73436928      13.00546547
O        3.37406341       2.58326864      12.40230316
H        3.40346343       2.58129114      11.42404425
H        4.18652252       2.13100441      12.70786539
O        3.39034560       5.22198763       8.71925762
H        3.41287923       5.23517759       7.74117132
H        4.19716032       5.68322655       9.02552862
O        1.12437145       6.51926931       9.64187002
H        1.92827163       6.07576306       9.30322688
H        1.15046719       7.43511388       9.29567881
O        3.36996978       5.18252130      13.33667287
H        2.56781016       5.62881095      12.99722048
H        3.34798530       4.26803574      12.98865809
O        1.12205209       6.49104810      12.39865647
H        1.12476229       6.52677693      11.42026461
H        1.12955701       7.42010203      12.70753841
O        1.12928473       9.11091056       8.71285585
H        1.15742219       9.13465230       7.73464076
H        1.92822825       9.58149254       9.02776083
O        3.36101431      10.41668051       9.66629718
H        3.38477437      10.40089939      10.64463875
H        4.17030583       9.95627839       9.36303590
O        1.13018482       9.09653012      13.31533522
H        1.14525704       9.10279352      14.29423969
H        1.93923933       9.56615066      13.02581217
O        3.38530574      10.40976512      12.43018402
H        4.19716935       9.97236795      12.75830802
H        3.40523587      11.32829096      12.76835410
O        3.37972571      13.02185574       8.75485343
H        2.56884525      13.46100885       9.08355049
H        3.35307204      12.10208657       9.08885301
O        1.11507119      14.31422611       9.64984177
H        0.30919112      13.87439635       9.31046465
H        1.09413794      15.23337243       9.31391934
O        3.37971160      13.01016456      13.35054771
H        3.35262325      13.02672150      14.32900964
H        2.57096771      13.46629880      13.03982735
O        1.13019156      14.30579920      12.41488089
H        1.10620775      14.29833873      11.43654555
H        0.32022427      13.84542712      12.71486601
O        1.11057635      16.92137112       8.72781487
H        0.32767841      17.39780306       9.07131352
H        1.89649071      17.38954025       9.07689523
O        3.36205618      18.20627071       9.66850042
H        3.39715833      18.19264591      10.64679088
H        4.17125727      17.74855524       9.36140234
O        1.12416219      16.91060158      13.34109232
H        1.14622987      15.99424302      12.99845105
H        1.93196320      17.35128492      13.00785566
O        3.39581118      18.20065837      12.42759394
H        4.20141948      17.76333047      12.77130400
H        3.41629441      19.12024241      12.76199831
O        3.37405418      20.81048872       8.75062577
H        2.57006368      21.25443569       9.08995117
H        3.34741359      19.89159980       9.08701090
O        1.12001423      22.10854593       9.67036261
H        0.31961196      21.66627505       9.32049724
H        1.09505628      23.03019989       9.34121752
O        3.39628695      20.81308408      13.34020479
H        3.37844005      20.83227340      14.31855569
H        2.58654381      21.27342481      13.03853023
O        1.14078317      22.11223920      12.43028605
H        1.11607278      22.10206071      11.45179538
H        0.32885465      21.65209158      12.72689907
O        5.63312729       1.29554508       8.73727610
H        5.65694301       0.37759648       9.07558736
H        6.43822824       1.73907079       9.07333045
O        7.88511922       2.60955577       9.65185479
H        7.88485390       2.64048557      10.63028718
H        7.89004506       3.54000827       9.34752615
O        5.64617036       1.31084809      13.33598859
H        5.63642791       1.27970822      14.31410627
H        5.64523772       0.38039655      13.03079236
O        7.88807847       2.62683316      12.41185531
H        7.08749340       2.17652498      12.75069536
H        7.86166222       3.54011908      12.76355200
O        7.91545094       5.21764693       8.74447590
H        7.93104903       5.22589392       7.76610699
H        8.72671190       5.67981772       9.03950217
O        5.65115902       6.51416649       9.65391450
H        5.65770749       6.49035625      10.63218916
H        6.46154208       6.05117957       9.35922611
O        7.87480482       5.21372856      13.36512532
H        7.90802540       5.22947073      14.34350849
H        8.67919133       5.67379447      13.04932663
O        5.62759957       6.49781374      12.42127743
H        4.84013526       6.02061013      12.75256170
H        6.40788762       6.02499639      12.77665694
O        5.61697801       9.12288218       8.75004572
H        5.62079673       9.09170643       7.77171337
H        5.63488246       8.19283986       9.05511111
O        7.88602495      10.42109683       9.64461058
H        7.07457482       9.98139608       9.31853905
H        7.86358718      11.33647887       9.29744558
O        5.64247381       9.10671341      13.33132588
H        5.65588397       8.18627856      12.99842228
H        6.45167880       9.54032445      12.99191692
O        7.90546598      10.39282112      12.40324364
H        7.90116721      10.43049060      11.42501416
H        7.89672933      11.32124721      12.71393847
O        7.89027096      13.00974913       8.70055235
H        7.86753220      13.03172853       7.72237647
H        7.08949468      13.48020153       9.01021011
O        5.64813368      14.30711002       9.65144500
H        5.62797141      14.28773192      10.62963605
H        4.83441873      13.85109694       9.35296498
O        7.88820005      12.99866014      13.31841615
H        7.86970677      13.00832736      14.29691725
H        7.07645655      13.46081239      13.02400511
O        5.63008318      14.29873171      12.42029333
H        4.82159866      13.86255213      12.75928347
H        5.61279222      15.21565178      12.76213227
O        5.63312128      16.92172380       8.76562080
H        5.65756061      15.99852922       9.09028149
H        6.44225274      17.35757675       9.10310573
O        7.89774878      18.20914959       9.67215825
H        8.70509297      17.77055585       9.33526393
H        7.91700978      19.12515343       9.32648290
O        5.64323228      16.89800768      13.36151834
H        5.66724241      16.91459014      14.33972450
H        6.44922933      17.36219854      13.05623125
O        7.89146497      18.21040226      12.43940091
H        7.89174969      18.23533037      11.46115152
H        7.89374313      19.14293820      12.73768770
O        7.89502741      20.80343324       8.74013134
H        7.92270410      20.81927203       7.76158152
H        8.69424431      21.27783647       9.04764749
O        5.63793097      22.10713253       9.65894008
H        4.85111162      21.63160612       9.32286192
H        6.42058791      21.62668932       9.32046103
O        7.89247839      20.82113349      13.34004949
H        7.10517942      21.29684670      13.00516626
H        8.67283685      21.30643571      13.00284548
O        5.64137393      22.12786714      12.42144319
H        5.61926784      22.10597389      11.44324884
H        4.83912993      21.65654839      12.72653755
O       10.12984004       1.30020101       8.73476695
H       10.10212978       1.29957418       7.75645585
H        9.32834607       1.77389594       9.03824237
O       12.39162259       2.59285629       9.64738844
H       11.60399492       2.11636722       9.31435230
H       13.17472064       2.10715185       9.31717979
O       10.14381762       1.32545201      13.33157835
H        9.35899671       1.80147625      12.99122734
H       10.92768612       1.80457579      12.99217365
O       12.39404514       2.61764028      12.41180519
H       12.39855174       2.63254248      11.43337027
H       12.39712862       3.55082138      12.70875898
O       12.40814481       5.19063646       8.73040987
H       12.41393146       5.17398473       7.75164328
H       12.39790117       4.25701221       9.02557096
O       10.17020030       6.50882598       9.65903402
H       10.97428460       6.06789968       9.31661174
H       10.19182198       7.43106380       9.33162615
O       12.38728458       5.21392442      13.32512086
H       12.39710296       5.21999862      14.30417026
H       13.19795765       5.68389628      13.03998250
O       10.12503637       6.49850495      12.42016681
H       10.15279667       6.48645165      11.44175550
H       10.93636730       6.04101332      12.72272762
O       10.15133193       9.11774128       8.75986106
H       10.12748044       9.13014060       7.78119992
H        9.33906469       9.57584746       9.05844048
O       12.41902026      10.38782124       9.66737642
H       12.39296889      10.39114018      10.64568876
H       11.60292360       9.93508047       9.37052232
O       10.14866824       9.10160825      13.34456677
H        9.34401932       9.53966768      12.99872487
H       10.12938229       8.18186687      13.00989392
O       12.39918640      10.41399929      12.43139599
H       11.59627291       9.96640041      12.76799605
H       12.36608110      11.33420504      12.76341307
O       12.39293158      12.98870872       8.73521365
H       12.39273871      12.96782441       7.75673842
H       12.40729249      12.05848869       9.03924919
O       10.14766150      14.29844892       9.64818007
H        9.36273664      13.83229511       9.29577280
H       10.92950817      13.81017055       9.31765215
O       12.37829889      13.01748831      13.34773836
H       11.59816772      13.50021318      13.00648383
H       13.16808945      13.48984651      13.01353622
O       10.13272945      14.32219693      12.40803376
H       10.11608392      14.29548918      11.42966940
H        9.33188777      13.84842088      12.71271244
O       10.15539195      16.91166746       8.73911234
H       10.18018563      15.99151369       9.07126593
H       10.95601062      17.35636531       9.08407461
O       12.39474575      18.23775095       9.66540917
H       12.40100851      18.26223669      10.64368648
H       12.39386400      19.16871360       9.36247637
O       10.15441670      16.91185804      13.34500771
H        9.34923583      17.35828835      13.01250740
H       10.12285759      15.99624392      12.99920772
O       12.40139858      18.23038378      12.42985255
H       11.61703507      17.74694883      12.76100021
H       13.18433334      17.74983008      12.76797447
O       12.40296029      20.83943990       8.74339717
H       11.61871721      21.32095240       9.07794885
H       13.18888809      21.31307066       9.08383081
O       10.14163950      22.12532942       9.65622613
H       10.13762255      22.15214384      10.63475514
H       10.13237862      23.05668685       9.35376104
O       12.38205325      20.83388299      13.33984261
H       12.39423326      20.79660305      14.31787575
H       12.38804513      19.90438338      13.03185517
O       10.13352578      22.14295039      12.41723904
H       10.93522667      21.69576090      12.75723735
H       10.16100591      23.06062566      12.75704285
O       14.64587998       1.28903219       8.73092631
H       14.68036740       0.37215556       9.07362933
H       15.44376330       1.74143645       9.07202017
O       16.89307175       2.60667943       9.66761351
H       16.88928135       2.62799661      10.64590130
H       16.88597566       3.53932174       9.36977833
O       14.63297751       1.29103709      13.34589162
H       14.61077780       1.31123523      14.32429569
H       13.83674766       1.76976039      13.03784354
O       16.89563905       2.59807594      12.43035845
H       16.10912446       2.12314545      12.76689647
H       17.67911911       2.11342373      12.76116478
O       16.88494840       5.21219666       8.76534914
H       16.10164821       5.69134855       9.10439109
H       17.67276851       5.69474568       9.08866843
O       14.62998578       6.51249557       9.68376442
H       14.60508715       6.49772300      10.66183851
H       13.83576157       6.03263652       9.37166954
O       16.90694797       5.20660193      13.34917270
H       16.91952814       4.28461782      13.02112659
H       17.70808492       5.64039269      12.99016088
O       14.64477180       6.50738929      12.44469953
H       15.45429612       6.06621899      12.77365150
H       14.67308915       7.42985870      12.77181254
O       14.66315881       9.09609604       8.73393002
H       13.86146904       9.54066515       9.07885045
H       14.63092900       8.17920698       9.07632864
O       16.90699626      10.40038545       9.65671019
H       16.12462695       9.91613423       9.32122842
H       17.69280618       9.93397581       9.30562875
O       14.65450490       9.11051208      13.34545649
H       13.86781492       9.58835750      13.01228739
H       15.43814941       9.58808244      13.00404855
O       16.90355955      10.40575520      12.41774201
H       16.92464673      10.38824649      11.43924825
H       17.70854260       9.93677709      12.71938672
O       16.88780199      13.00740134       8.74419758
H       16.07992233      13.44333029       9.08339676
H       16.87547888      12.08948152       9.08420911
O       14.63271024      14.30857969       9.67137649
H       13.83023932      13.86559636       9.32853497
H       14.61139450      15.22589543       9.32961440
O       16.89512195      13.00761244      13.32897899
H       16.90332223      12.98693456      14.30730758
H       16.90435931      12.07481163      13.03149345
O       14.63767555      14.31135625      12.43088425
H       14.65739094      14.30674426      11.45225773