576
# CELL(abcABC):   34.06844    44.25621    27.81677    90.00000    90.00000    90.00000  Step:           0  Bead:       0 forces{atomic_unit}  cell{atomic_unit}
       O  6.26627e-04 -1.42102e-02 -1.01363e-02
       H -1.80085e-02  6.63495e-03  4.82509e-03
       H  1.75884e-02  6.81784e-03  4.62534e-03
       O -1.30849e-02  7.81322e-03 -9.47834e-03
       H -2.66399e-03  1.34582e-03  1.91812e-02
       H  1.47558e-02 -8.59736e-03 -9.67718e-03
       O  1.25235e-02 -7.63790e-03 -1.01304e-02
       H  2.68547e-03 -1.72056e-03  1.90043e-02
       H -1.46530e-02  8.91259e-03 -9.55517e-03
       O  1.14245e-03  1.34993e-02 -1.03704e-02
       H -1.78622e-02 -6.42578e-03  4.74676e-03
       H  1.75460e-02 -6.88629e-03  5.11598e-03
       O  1.14876e-02  6.73218e-03 -1.03931e-02
       H -1.47534e-02  1.18435e-02  4.48785e-03
       H  3.41817e-03 -1.85153e-02  5.30195e-03
       O -1.22239e-03 -1.42240e-02 -9.23146e-03
       H  4.84558e-04 -3.26113e-03  1.92646e-02
       H  6.52748e-04  1.68015e-02 -9.90859e-03
       O -1.10614e-02  7.82344e-03  1.01346e-02
       H -3.35412e-03 -1.87517e-02 -4.61608e-03
       H  1.44807e-02  1.17837e-02 -5.24061e-03
       O -1.28127e-02 -5.92652e-03 -1.02592e-02
       H  1.46449e-02 -1.20077e-02  4.73872e-03
       H -2.58487e-03  1.86114e-02  5.45567e-03
       O  1.25798e-02 -5.89138e-03  1.07008e-02
       H  2.59213e-03 -2.34689e-03 -1.91977e-02
       H -1.50429e-02  8.46263e-03  9.14509e-03
       O  1.28291e-02 -6.67972e-03  9.69796e-03
       H -1.50795e-02 -1.16566e-02 -4.66466e-03
       H  2.56206e-03  1.85734e-02 -5.31317e-03
       O -1.12912e-02 -7.43711e-03 -1.04964e-02
       H -3.27505e-03 -1.56826e-03  1.92838e-02
       H  1.46422e-02  8.58020e-03 -9.44847e-03
       O  1.13168e-03 -1.37861e-02  1.04872e-02
       H -4.89282e-04 -3.55626e-03 -1.91283e-02
       H -2.63363e-04  1.72059e-02  9.38123e-03
       O  1.12759e-02 -7.42259e-03  1.03465e-02
       H  3.31461e-03 -1.56597e-03 -1.92218e-02
       H -1.47387e-02  8.55532e-03  9.53220e-03
       O -7.50534e-04 -1.38521e-02 -1.07103e-02
       H  3.54886e-04 -3.52544e-03  1.92949e-02
       H  1.66347e-04  1.73247e-02 -9.22530e-03
       O  5.67905e-04 -1.40302e-02  8.91799e-03
       H -1.78844e-02  6.89498e-03 -4.45611e-03
       H  1.76282e-02  6.85955e-03 -4.91608e-03
       O  1.22210e-02 -5.63045e-03 -1.04898e-02
       H -1.45453e-02 -1.23117e-02  4.76379e-03
       H  2.76343e-03  1.85395e-02  5.14172e-03
       O -1.96952e-04 -1.46109e-02 -9.17583e-03
       H -1.76503e-02  7.04265e-03  4.43883e-03
       H  1.78358e-02  6.92955e-03  4.51194e-03
       O -1.23498e-02  7.00403e-03 -9.78629e-03
       H -2.81402e-03  2.15145e-03  1.89938e-02
       H  1.45284e-02 -8.73032e-03 -9.78638e-03
       O -1.27303e-02 -6.27947e-03 -9.38848e-03
       H -2.64967e-03 -1.73913e-03  1.91737e-02
       H  1.49664e-02  8.17933e-03 -9.73581e-03
       O -1.18271e-02 -7.42491e-03 -9.40923e-03
       H  1.48715e-02 -1.17686e-02  5.14506e-03
       H -2.68783e-03  1.86546e-02  4.41405e-03
       O  8.43748e-05  1.42725e-02  1.01642e-02
       H  2.21478e-04  3.37102e-03 -1.92273e-02
       H -4.47518e-04 -1.68898e-02  9.63417e-03
       O -1.24278e-02 -5.79056e-03  1.01726e-02
       H  1.45829e-02 -1.23038e-02 -4.82385e-03
       H -2.72065e-03  1.86365e-02 -4.95188e-03
       O  1.23393e-02 -6.20316e-03 -8.99544e-03
       H  2.94099e-03 -1.86135e-03  1.92550e-02
       H -1.48760e-02  7.97656e-03 -1.00844e-02
       O -9.93498e-05 -1.35318e-02  1.09969e-02
       H  3.14516e-04 -3.81245e-03 -1.91228e-02
       H -8.08041e-05  1.71661e-02  9.32924e-03
       O -1.25124e-02  7.02881e-03 -8.85650e-03
       H -2.96635e-03 -1.86816e-02  4.47587e-03
       H  1.48580e-02  1.20206e-02  4.34543e-03
       O -1.09988e-02 -7.67063e-03  1.03889e-02
       H  1.45887e-02 -1.17195e-02 -5.09465e-03
       H -3.26538e-03  1.86664e-02 -4.77035e-03
       O -1.31427e-02 -7.10100e-03 -9.11909e-03
       H -2.66967e-03 -1.57655e-03  1.91828e-02
       H  1.46590e-02  8.21798e-03 -9.95236e-03
       O -1.26395e-02  7.08882e-03  1.01917e-02
       H -3.02988e-03  1.44110e-03 -1.91206e-02
       H  1.49578e-02 -8.12951e-03  9.62174e-03
       O  1.22245e-02 -7.09968e-03  9.96150e-03
       H  3.18327e-03 -1.36503e-03 -1.90953e-02
       H -1.48758e-02  8.22623e-03  9.66939e-03
       O  1.24945e-02 -6.60021e-03  9.36319e-03
       H -1.48861e-02 -1.17469e-02 -4.48573e-03
       H  2.78269e-03  1.87107e-02 -5.14181e-03
       O  1.11637e-02  7.55165e-03  1.01636e-02
       H -1.47169e-02  1.18351e-02 -5.10110e-03
       H  3.24784e-03 -1.87415e-02 -4.64006e-03
       O  2.63929e-04 -1.50811e-02  9.39591e-03
       H -7.75536e-05 -3.03603e-03 -1.91626e-02
       H -3.03194e-05  1.69677e-02  9.81359e-03
       O  1.16306e-02 -7.87390e-03  9.24578e-03
       H  2.96830e-03 -1.49050e-03 -1.90761e-02
       H -1.45163e-02  8.94788e-03  9.81738e-03
       O -6.49578e-04  1.43621e-02  1.01844e-02
       H -1.73776e-02 -6.89347e-03 -4.58066e-03
       H  1.78114e-02 -6.63260e-03 -4.80254e-03
       O -4.57058e-04 -1.45521e-02  9.69573e-03
       H -1.75172e-02  7.08886e-03 -5.30629e-03
       H  1.75876e-02  7.22339e-03 -4.70143e-03
       O -1.14043e-03 -1.31395e-02  9.92807e-03
       H  5.11297e-04 -3.76987e-03 -1.91591e-02
       H  1.55207e-04  1.69760e-02  9.67116e-03
       O  1.25896e-02  7.35921e-03 -8.97811e-03
       H -1.49204e-02  1.20319e-02  4.65045e-03
       H  2.83232e-03 -1.89282e-02  4.24477e-03
       O  1.18883e-02  5.57541e-03 -9.91944e-03
       H  3.04218e-03  2.27476e-03  1.91759e-02
       H -1.47898e-02 -8.34434e-03 -9.64897e-03
       O -1.26569e-02 -5.89801e-03 -1.06440e-02
       H -2.75955e-03 -2.24887e-03  1.91588e-02
       H  1.50565e-02  8.47057e-03 -9.22254e-03
       O -1.30483e-02 -6.87767e-03 -1.02397e-02
       H  1.46774e-02 -1.20097e-02  4.95944e-03
       H -2.53735e-03  1.86976e-02  4.64243e-03
       O  6.55626e-04  1.34245e-02  1.03702e-02
       H -2.25924e-04  3.65818e-03 -1.92429e-02
       H  5.22231e-06 -1.68763e-02  9.46241e-03
       O -7.49180e-05  1.41829e-02  1.07147e-02
       H -1.74133e-02 -7.16882e-03 -4.85012e-03
       H  1.74899e-02 -6.59486e-03 -5.44918e-03
       O -1.17231e-02 -6.38957e-03 -9.39536e-03
       H -3.04325e-03 -1.76645e-03  1.93534e-02
       H  1.48921e-02  8.35537e-03 -9.81813e-03
       O -1.22236e-02  7.18194e-03  1.01892e-02
       H -3.21464e-03  1.22304e-03 -1.92615e-02
       H  1.47461e-02 -8.16277e-03  9.60992e-03
       O  1.19847e-02  7.64443e-03 -9.41088e-03
       H -1.48961e-02  1.17357e-02  5.15632e-03
       H  2.79313e-03 -1.88062e-02  4.47965e-03
       O  1.28860e-02  6.25137e-03 -9.24726e-03
       H  2.66708e-03  1.92885e-03  1.91686e-02
       H -1.49952e-02 -8.05634e-03 -9.87691e-03
       O  1.23258e-02  6.25909e-03  9.91376e-03
       H -1.44629e-02  1.23970e-02 -4.63925e-03
       H  3.05482e-03 -1.87022e-02 -4.70394e-03
       O  1.12796e-02 -8.12483e-03 -1.04312e-02
       H -1.48332e-02 -1.15026e-02  5.20994e-03
       H  3.33172e-03  1.86211e-02  4.74450e-03
       O  1.31261e-03  1.42758e-02  9.35090e-03
       H -1.72713e-04  3.36250e-03 -1.92823e-02
       H -5.64159e-04 -1.69849e-02  9.98425e-03
       O -2.20498e-04  1.37816e-02  1.04075e-02
       H -1.76000e-02 -7.26874e-03 -4.66388e-03
       H  1.76968e-02 -6.37732e-03 -5.31563e-03
       O -1.19418e-02  7.64548e-03  9.32109e-03
       H -2.79669e-03 -1.87924e-02 -4.51486e-03
       H  1.48562e-02  1.16707e-02 -5.15755e-03
       O -1.27379e-02  6.66989e-03  9.34107e-03
       H -2.70675e-03  1.68659e-03 -1.92148e-02
       H  1.50063e-02 -8.13834e-03  9.87422e-03
       O  1.24916e-02  6.67907e-03 -9.40097e-03
       H -1.50658e-02  1.18730e-02  4.69804e-03
       H  2.88989e-03 -1.85581e-02  5.12118e-03
       O  1.24628e-02  5.62174e-03 -1.03277e-02
       H  2.78899e-03  2.42222e-03  1.92076e-02
       H -1.48810e-02 -8.33123e-03 -9.52069e-03
       O  1.19303e-02  7.43053e-03  9.86041e-03
       H -1.48494e-02  1.19754e-02 -4.57632e-03
       H  3.40726e-03 -1.86238e-02 -4.78987e-03
       O  1.15039e-02 -8.08540e-03 -1.03146e-02
       H -1.46665e-02 -1.15314e-02  5.26067e-03
       H  3.12724e-03  1.87809e-02  4.94526e-03
       O  2.30893e-04  1.35083e-02  9.73874e-03
       H -1.95712e-05  3.40838e-03 -1.93300e-02
       H -1.08323e-04 -1.70037e-02  9.66488e-03
       O -1.01170e-03  1.42929e-02  1.05259e-02
       H -1.73115e-02 -7.04747e-03 -5.39651e-03
       H  1.75167e-02 -6.79138e-03 -4.85774e-03
       O  1.08117e-02 -7.48746e-03 -1.00914e-02
       H  3.49769e-03 -1.44047e-03  1.91937e-02
       H -1.46252e-02  8.55673e-03 -9.57951e-03
       O  1.28345e-02  7.55160e-03  9.11114e-03
       H  2.77097e-03  1.40406e-03 -1.91538e-02
       H -1.44442e-02 -8.42000e-03  9.96867e-03
       O  1.13899e-02  8.17859e-03 -1.04788e-02
       H -1.46720e-02  1.16354e-02  5.57380e-03
       H  3.20139e-03 -1.87426e-02  4.89233e-03
       O  1.20173e-02  5.88721e-03 -1.06233e-02
       H  2.86479e-03  2.20929e-03  1.92982e-02
       H -1.49665e-02 -8.47597e-03 -9.17726e-03
       O -1.17703e-02  7.16718e-03  1.04387e-02
       H -3.34956e-03 -1.85013e-02 -5.32466e-03
       H  1.48987e-02  1.16506e-02 -4.60435e-03
       O -1.26851e-02 -7.34187e-03 -9.07614e-03
       H  1.47348e-02 -1.19024e-02  4.46283e-03
       H -2.81627e-03  1.88749e-02  4.54119e-03
       O -8.60961e-04  1.36974e-02  9.09613e-03
       H  1.93703e-04  3.33820e-03 -1.91674e-02
       H  6.02695e-04 -1.67224e-02  9.88972e-03
       O  1.26780e-02 -6.62901e-03  1.00844e-02
       H -1.43761e-02 -1.20118e-02 -4.66877e-03
       H  2.66697e-03  1.87876e-02 -4.61036e-03
       O -1.11806e-02 -7.70233e-03 -1.01132e-02
       H -3.55549e-03 -1.15341e-03  1.91210e-02
       H  1.45633e-02  8.71594e-03 -9.58756e-03
       O -1.11434e-02  7.48794e-03  1.04222e-02
       H -3.38563e-03  1.36008e-03 -1.91730e-02
       H  1.48533e-02 -8.68750e-03  9.23132e-03
       O  1.17006e-02 -6.78394e-03  9.46515e-03
       H  3.11811e-03 -1.60358e-03 -1.92211e-02
       H -1.47473e-02  8.47346e-03  9.83590e-03
       O  1.18319e-02  7.18202e-03 -1.13025e-02
       H  3.30805e-03  1.68897e-03  1.90551e-02
       H -1.48911e-02 -8.67398e-03 -9.22773e-03
       O -1.22251e-02  7.06535e-03  1.07301e-02
       H -2.57351e-03 -1.86811e-02 -4.85029e-03
       H  1.44518e-02  1.18496e-02 -5.57059e-03
       O  4.87651e-05  1.36795e-02 -9.88817e-03
       H -1.76535e-02 -6.29586e-03  5.16775e-03
       H  1.76302e-02 -6.91573e-03  4.55846e-03
       O -1.27372e-02 -7.66818e-03  9.10947e-03
       H -2.69926e-03 -1.51314e-03 -1.91802e-02
       H  1.44962e-02  8.40729e-03  9.97510e-03
       O  1.25764e-03 -1.37879e-02 -1.05806e-02
       H -6.09937e-04 -3.49430e-03  1.92379e-02
       H -3.13609e-04  1.71832e-02 -9.41864e-03
       O -4.57518e-04  1.41382e-02 -1.00243e-02
       H -3.59363e-04  3.42250e-03  1.91301e-02
       H  5.46256e-04 -1.68028e-02 -9.68454e-03
       O  1.21770e-02 -6.46722e-03 -9.24966e-03
       H -1.47488e-02 -1.19690e-02  4.46259e-03
       H  2.92479e-03  1.85515e-02  4.99218e-03
       O -2.85498e-04 -1.41636e-02 -9.51906e-03
       H -1.75997e-02  6.86277e-03  5.15114e-03
       H  1.76719e-02  7.37365e-03  4.46141e-03
       O  1.26307e-02  7.00299e-03 -1.03365e-02
       H  2.53481e-03  2.15497e-03  1.89855e-02
       H -1.45587e-02 -8.85572e-03 -9.46695e-03
       O -1.26230e-04 -1.35984e-02  1.00715e-02
       H -1.75719e-02  6.85471e-03 -4.69539e-03
       H  1.77251e-02  6.31191e-03 -5.37997e-03
       O  1.19185e-02 -6.84056e-03 -9.68209e-03
       H -1.43265e-02 -1.22215e-02  5.07428e-03
       H  2.82203e-03  1.88641e-02  4.31470e-03
       O -7.77310e-04  1.38497e-02  8.99079e-03
       H  1.95669e-04  3.35973e-03 -1.91055e-02
       H  4.91049e-04 -1.68645e-02  9.97287e-03
       O  1.23030e-02 -7.06228e-03  8.95729e-03
       H -1.47560e-02 -1.20103e-02 -4.49814e-03
       H  2.95523e-03  1.86644e-02 -4.41119e-03
       O -4.68421e-04 -1.39753e-02  1.00670e-02
       H -1.78018e-02  6.77555e-03 -4.52360e-03
       H  1.78420e-02  6.41736e-03 -4.67851e-03
       O -1.20850e-02  6.73022e-03  9.61704e-03
       H -2.81310e-03  2.05493e-03 -1.90402e-02
       H  1.44520e-02 -8.68290e-03  9.78572e-03
       O -1.07320e-03 -1.38179e-02 -1.03275e-02
       H -1.74047e-02  6.84689e-03  5.11760e-03
       H  1.78548e-02  6.61440e-03  4.96630e-03
       O  1.26644e-02 -6.56043e-03  9.43033e-03
       H -1.45286e-02 -1.23445e-02 -4.68093e-03
       H  2.89631e-03  1.86823e-02 -4.42688e-03
       O  1.39931e-04  1.42229e-02 -1.00450e-02
       H -6.77421e-04  3.52216e-03  1.90473e-02
       H  4.67575e-04 -1.68877e-02 -9.64510e-03
       O -1.12878e-02  6.75500e-03  9.18316e-03
       H -3.12334e-03  1.77343e-03 -1.91148e-02
       H  1.47082e-02 -8.59770e-03  9.86554e-03
       O -3.85489e-04 -1.43691e-02 -9.87959e-03
       H -1.77374e-02  6.91575e-03  4.48899e-03
       H  1.78358e-02  6.50737e-03  4.82219e-03
       O -2.96457e-04 -1.39295e-02 -9.90956e-03
       H  6.38278e-05 -3.22324e-03  1.93680e-02
       H  9.54465e-05  1.72424e-02 -9.44481e-03
       O -1.27614e-02  7.24469e-03  9.10187e-03
       H -2.88324e-03 -1.88311e-02 -4.64723e-03
       H  1.47969e-02  1.18322e-02 -4.47400e-03
       O -1.21898e-02 -7.09300e-03 -1.07393e-02
       H  1.49666e-02 -1.15046e-02  4.75525e-03
       H -3.02336e-03  1.84268e-02  5.63240e-03
       O  2.11786e-05 -1.43000e-02 -8.58555e-03
       H -1.78953e-02  6.81689e-03  4.28268e-03
       H  1.78772e-02  6.70460e-03  4.43576e-03
       O  1.26530e-02 -6.67418e-03  1.02142e-02
       H -1.45491e-02 -1.21830e-02 -4.79742e-03
       H  2.87280e-03  1.86117e-02 -4.64494e-03
       O -1.12899e-02 -7.45339e-03 -1.03465e-02
       H -3.42016e-03 -1.56381e-03  1.91792e-02
       H  1.46515e-02  8.67852e-03 -9.56461e-03
       O -1.18260e-02  5.62881e-03  1.00731e-02
       H -3.11728e-03  2.19939e-03 -1.91776e-02
       H  1.48565e-02 -8.36444e-03  9.59365e-03
       O  1.47974e-04 -1.41132e-02 -1.01392e-02
       H -1.77233e-02  6.58095e-03  5.37500e-03
       H  1.75328e-02  7.14269e-03  4.50094e-03
       O -1.27831e-02 -6.71923e-03  1.00282e-02
       H  1.43813e-02 -1.20319e-02 -4.77338e-03
       H -2.77587e-03  1.86835e-02 -4.83635e-03
       O  5.55691e-05  1.38826e-02 -9.53337e-03
       H  2.85940e-04  3.51799e-03  1.90887e-02
       H -2.90798e-04 -1.68916e-02 -9.84763e-03
       O  1.11144e-02  6.71137e-03  1.08656e-02
       H  3.42900e-03  1.98322e-03 -1.92038e-02
       H -1.46279e-02 -8.53574e-03  9.32426e-03
       O -1.12674e-02 -7.27145e-03  1.02149e-02
       H -3.39505e-03 -1.68676e-03 -1.92034e-02
       H  1.47026e-02  8.51207e-03  9.59905e-03
       O -1.13659e-02  7.60771e-03 -1.01921e-02
       H -3.33088e-03  1.30326e-03  1.91524e-02
       H  1.47143e-02 -8.71525e-03 -9.54733e-03
       O  1.79851e-04  1.35323e-02 -9.58439e-03
       H -6.15703e-05  3.46926e-03  1.93541e-02
       H  5.18661e-05 -1.70092e-02 -9.82733e-03
       O  6.91611e-06  1.37027e-02 -1.03518e-02
       H -1.74253e-02 -6.82369e-03  4.60188e-03
       H  1.76598e-02 -6.57133e-03  5.35679e-03
       O -1.20217e-02  6.85845e-03 -1.05784e-02
       H -2.58214e-03 -1.88895e-02  4.70487e-03
       H  1.43648e-02  1.19692e-02  5.52064e-03
       O -2.43619e-04 -1.38916e-02 -9.76381e-03
       H  3.59714e-04 -3.60544e-03  1.90284e-02
       H -1.91598e-04  1.70027e-02 -9.74945e-03
       O  1.17499e-02  6.80646e-03  1.02048e-02
       H -1.42682e-02  1.20029e-02 -5.34303e-03
       H  2.69059e-03 -1.87579e-02 -4.52962e-03
       O -5.51133e-04  1.39925e-02 -9.48389e-03
       H -1.77588e-02 -6.65005e-03  4.56235e-03
       H  1.78916e-02 -6.25545e-03  4.52033e-03
       O -1.22985e-02 -7.25420e-03  9.96076e-03
       H -2.91123e-03 -1.86502e-03 -1.90129e-02
       H  1.44651e-02  8.79840e-03  9.67025e-03
       O -1.14188e-03  1.34536e-02  1.04329e-02
       H -1.74102e-02 -6.82672e-03 -5.23510e-03
       H  1.78669e-02 -6.39608e-03 -4.91638e-03
       O  1.19367e-02  6.97352e-03  1.04015e-02
       H -1.44400e-02  1.20499e-02 -5.60860e-03
       H  2.70270e-03 -1.87183e-02 -4.57187e-03
       O  1.20371e-02  5.92328e-03  1.05102e-02
       H  3.08208e-03  2.13681e-03 -1.93960e-02
       H -1.47778e-02 -8.38655e-03  9.53518e-03
       O  1.25587e-02  7.31040e-03 -8.97280e-03
       H -1.49422e-02  1.18102e-02  4.57512e-03
       H  2.93141e-03 -1.86801e-02  4.45690e-03
       O  1.28890e-02  6.76883e-03 -9.61068e-03
       H  2.81045e-03  1.57558e-03  1.92298e-02
       H -1.49709e-02 -8.19591e-03 -9.62446e-03
       O  1.66277e-06  1.31470e-02 -9.32019e-03
       H  6.41379e-05  3.50273e-03  1.92074e-02
       H -1.73515e-05 -1.69596e-02 -9.77880e-03
       O -1.27082e-03  1.37703e-02 -1.01832e-02
       H -1.73658e-02 -6.83571e-03  5.29776e-03
       H  1.77633e-02 -6.51131e-03  4.74238e-03
       O -1.19623e-02  7.71147e-03 -1.02390e-02
       H -3.29262e-03 -1.86028e-02  4.77103e-03
       H  1.48397e-02  1.17910e-02  4.74089e-03
       O -1.20266e-02 -7.67643e-03  9.48362e-03
       H  1.48280e-02 -1.19240e-02 -4.39282e-03
       H -3.49196e-03  1.87180e-02 -4.69793e-03
       O  1.19398e-02  7.18367e-03  1.03837e-02
       H -1.48158e-02  1.15911e-02 -4.84127e-03
       H  3.22080e-03 -1.83937e-02 -5.43132e-03
       O  1.17324e-02  5.90025e-03  1.00190e-02
       H  3.00099e-03  2.39450e-03 -1.90811e-02
       H -1.47994e-02 -8.41641e-03  9.60306e-03
       O -1.14918e-02  7.73444e-03 -1.01139e-02
       H -3.21980e-03 -1.86449e-02  4.79225e-03
       H  1.46136e-02  1.16698e-02  5.04859e-03
       O -1.18998e-02 -7.69300e-03  9.91429e-03
       H  1.48685e-02 -1.17685e-02 -4.60181e-03
       H -3.37304e-03  1.85639e-02 -4.63639e-03
       O  1.09169e-02 -7.35307e-03 -9.97465e-03
       H  3.57517e-03 -1.28590e-03  1.91859e-02
       H -1.46059e-02  8.53009e-03 -9.69090e-03
       O  1.25703e-02  5.92143e-03  8.93779e-03
       H  2.78341e-03  1.81579e-03 -1.90385e-02
       H -1.47488e-02 -8.01776e-03  9.94274e-03
       O  1.29611e-02 -7.32618e-03  8.79782e-03
       H  2.62512e-03 -1.75111e-03 -1.90655e-02
       H -1.44798e-02  8.26660e-03  1.01986e-02
       O  5.56873e-05 -1.30575e-02 -1.07701e-02
       H  9.77606e-05 -4.02726e-03  1.90999e-02
       H -5.18001e-05  1.70179e-02 -9.44427e-03
       O -1.25130e-02  6.64286e-03  1.01098e-02
       H -2.83874e-03 -1.85338e-02 -4.54778e-03
       H  1.46162e-02  1.19658e-02 -4.74516e-03
       O  5.03691e-04  1.44504e-02 -9.85724e-03
       H -1.77882e-02 -6.47282e-03  4.80968e-03
       H  1.76128e-02 -7.01005e-03  4.46090e-03
       O  1.21066e-02 -7.49562e-03  9.86561e-03
       H  2.83199e-03 -2.00303e-03 -1.90598e-02
       H -1.43861e-02  8.92658e-03  9.70790e-03
       O  6.45618e-04  1.38990e-02  9.89264e-03
       H -1.79534e-02 -6.13363e-03 -4.74823e-03
       H  1.77156e-02 -6.85784e-03 -4.41784e-03
       O -1.24498e-02  6.38373e-03  9.75683e-03
       H -2.95794e-03 -1.87755e-02 -4.38559e-03
       H  1.43648e-02  1.24661e-02 -4.67554e-03
       O -1.16526e-04 -1.44969e-02  8.69225e-03
       H -7.09550e-05 -3.20502e-03 -1.91190e-02
       H -9.04745e-06  1.66345e-02  1.01106e-02
       O -1.16534e-02  7.44348e-03 -8.93052e-03
       H -3.03332e-03 -1.88328e-02  4.23504e-03
       H  1.46396e-02  1.18982e-02  5.04386e-03
       O -1.23586e-02  7.36212e-03 -1.01975e-02
       H -3.21471e-03  1.28116e-03  1.89659e-02
       H  1.48420e-02 -8.23043e-03 -9.54351e-03
       O -1.19010e-02 -6.90277e-03 -9.74659e-03
       H -2.84879e-03 -2.19959e-03  1.90665e-02
       H  1.44372e-02  8.75887e-03 -9.81987e-03
       O  1.09692e-03  1.34573e-02 -9.92685e-03
       H -1.76787e-02 -6.50909e-03  4.58401e-03
       H  1.74860e-02 -6.78338e-03  5.18725e-03
       O  1.20923e-02  7.94195e-03 -1.02503e-02
       H -1.49484e-02  1.16154e-02  4.68302e-03
       H  3.28864e-03 -1.87063e-02  4.84042e-03
       O  1.24247e-02 -5.60047e-03  1.00730e-02
       H -1.46612e-02 -1.22961e-02 -4.49487e-03
       H  2.87092e-03  1.84440e-02 -5.28872e-03
       O -1.23221e-02  5.74107e-03  1.01478e-02
       H -2.71890e-03 -1.84983e-02 -5.18230e-03
       H  1.43973e-02  1.22006e-02 -4.67731e-03
       O  1.43818e-03 -1.41396e-02  9.08805e-03
       H -3.20312e-04 -3.40142e-03 -1.91156e-02
       H -6.14408e-04  1.67408e-02  1.00191e-02
       O -1.20932e-02 -7.13558e-03  1.02789e-02
       H -3.22699e-03 -1.28328e-03 -1.91548e-02
       H  1.49868e-02  8.30844e-03  9.37241e-03
       O -1.13359e-02  6.47484e-03 -9.37952e-03
       H -3.13883e-03  1.67757e-03  1.93446e-02
       H  1.46291e-02 -8.43150e-03 -9.79675e-03
       O  1.21418e-02 -6.58017e-03 -1.15566e-02
       H  3.20790e-03 -1.96330e-03  1.91543e-02
       H -1.50151e-02  8.53906e-03 -8.94866e-03
       O  1.28527e-02 -7.24386e-03 -9.16660e-03
       H -1.48212e-02 -1.19076e-02  4.51744e-03
       H  2.79783e-03  1.88587e-02  4.64273e-03
       O -1.21910e-02 -6.75439e-03  9.90709e-03
       H -2.84597e-03 -1.75768e-03 -1.92783e-02
       H  1.49892e-02  8.55032e-03  9.46941e-03
       O -1.26706e-02 -7.14485e-03  8.92702e-03
       H  1.48061e-02 -1.18787e-02 -4.50770e-03
       H -2.76285e-03  1.87554e-02 -4.51168e-03
       O  1.28101e-02  6.61084e-03  9.64406e-03
       H -1.51662e-02  1.16975e-02 -4.61340e-03
       H  2.53341e-03 -1.85848e-02 -5.16590e-03
       O  1.22638e-02  7.05458e-03  9.92327e-03
       H  2.70511e-03  1.91626e-03 -1.90123e-02
       H -1.45533e-02 -8.78333e-03  9.61617e-03
       O -1.15060e-02 -7.65515e-03  8.97090e-03
       H -3.07931e-03 -1.49213e-03 -1.91548e-02
       H  1.43886e-02  8.80244e-03  1.00311e-02
       O  1.24339e-03  1.33100e-02  1.03157e-02
       H -1.78622e-02 -6.43277e-03 -4.61315e-03
       H  1.73368e-02 -6.76364e-03 -5.10204e-03
       O  3.54324e-04  1.43067e-02 -9.95160e-03
       H -4.47347e-04  3.42004e-03  1.90702e-02
       H  3.58707e-04 -1.69212e-02 -9.65986e-03
       O -1.25093e-02  6.65311e-03  9.45814e-03
       H -2.83452e-03  1.69454e-03 -1.92680e-02
       H  1.47580e-02 -8.22169e-03  9.77656e-03
       O -1.27530e-02  6.65041e-03 -9.97262e-03
       H -2.80877e-03 -1.85907e-02  4.61246e-03
       H  1.45232e-02  1.21382e-02  4.91559e-03
       O -1.16482e-02  5.90954e-03 -1.00415e-02
       H -3.07101e-03  2.31240e-03  1.91993e-02
       H  1.46973e-02 -8.32827e-03 -9.62396e-03
       O  1.15127e-02  6.69617e-03  1.03788e-02
       H -1.47065e-02  1.18945e-02 -4.49909e-03
       H  3.31041e-03 -1.85078e-02 -5.33862e-03
       O  1.28346e-02 -6.67594e-03 -1.00125e-02
       H -1.44811e-02 -1.20829e-02  4.77701e-03
       H  2.73314e-03  1.85939e-02  4.80174e-03
       O -3.48429e-04  1.48802e-02  9.15880e-03
       H  1.36855e-04  3.02188e-03 -1.92121e-02
       H -6.89109e-05 -1.67425e-02  9.97480e-03
       O -1.17325e-02 -6.82126e-03  1.01411e-02
       H  1.48316e-02 -1.19130e-02 -4.63760e-03
       H -3.34178e-03  1.84770e-02 -5.22371e-03
       O  1.13244e-02 -7.27669e-03 -1.01523e-02
       H  3.32984e-03 -1.72959e-03  1.91984e-02
       H -1.46239e-02  8.54058e-03 -9.66150e-03
       O -3.03503e-04 -1.38730e-02  1.13204e-02
       H  1.63814e-04 -3.55304e-03 -1.90635e-02
       H  1.49419e-04  1.72551e-02  8.98572e-03
       O  1.33853e-03 -1.40031e-02 -1.02722e-02
       H -1.77054e-02  6.57857e-03  4.72312e-03
       H  1.74664e-02  7.08748e-03  5.54672e-03
       O -1.40432e-03 -1.35212e-02 -1.04700e-02
       H  5.87832e-04 -3.66098e-03  1.93669e-02
       H  3.38076e-04  1.70400e-02 -9.46981e-03
       O -1.35323e-04 -1.46499e-02  9.10536e-03
       H -1.77898e-02  7.01605e-03 -4.63311e-03
       H  1.77365e-02  6.76608e-03 -4.50607e-03
       O -1.22493e-02 -5.72169e-03 -1.02485e-02
       H  1.43770e-02 -1.21755e-02  4.70948e-03
       H -2.81027e-03  1.84608e-02  5.17308e-03
       O -1.24529e-02 -5.70298e-03  1.02781e-02
       H -2.82385e-03 -2.23374e-03 -1.92537e-02
       H  1.48560e-02  8.36167e-03  9.57175e-03
       O -1.29709e-02 -7.44256e-03  9.44438e-03
       H  1.50337e-02 -1.17528e-02 -4.74228e-03
       H -2.69893e-03  1.88354e-02 -4.65369e-03
       O -1.75616e-04 -1.34470e-02  1.00537e-02
       H -1.75079e-02  6.37627e-03 -5.32104e-03
       H  1.77353e-02  6.98230e-03 -4.52659e-03
       O  1.17021e-02  7.59381e-03  9.06396e-03
       H  2.95874e-03  1.54645e-03 -1.91908e-02
       H -1.45379e-02 -8.91122e-03  1.00267e-02
       O -1.19139e-02  6.96510e-03 -1.05123e-02
       H -3.15421e-03 -1.85379e-02  5.48781e-03
       H  1.48049e-02  1.15556e-02  4.63543e-03
       O  5.67638e-04 -1.40861e-02 -9.24313e-03
       H -4.74244e-05 -3.39635e-03  1.91820e-02
       H -3.59187e-04  1.68876e-02 -9.96515e-03
       O  1.07175e-03 -1.35946e-02  1.01939e-02
       H -1.77844e-02  6.54497e-03 -4.86430e-03
       H  1.74202e-02  6.88830e-03 -5.11879e-03
       O -1.21037e-02 -5.82497e-03 -1.02113e-02
       H  1.45445e-02 -1.21873e-02  4.62846e-03
       H -2.81328e-03  1.86321e-02  5.10479e-03
       O -1.16514e-02 -6.83487e-03  1.09901e-02
       H -3.26367e-03 -1.81582e-03 -1.91377e-02
       H  1.47146e-02  8.65240e-03  9.31009e-03
       O -1.14208e-02  6.37716e-03 -1.07065e-02
       H -3.41403e-03  1.97859e-03  1.90626e-02
       H  1.47267e-02 -8.43021e-03 -9.47325e-03
       O  1.28828e-02 -7.82421e-03 -9.43688e-03
       H  2.65519e-03 -1.42816e-03  1.91183e-02
       H -1.46458e-02  8.57718e-03 -9.63030e-03
       O  1.24377e-02 -7.17964e-03 -8.87446e-03
       H -1.48673e-02 -1.21362e-02  4.52886e-03
       H  3.00096e-03  1.88254e-02  4.21964e-03
       O  8.12788e-04  1.30379e-02  1.00106e-02
       H -4.72653e-04  3.83645e-03 -1.91932e-02
       H -1.86281e-05 -1.69745e-02  9.68311e-03
       O -7.23273e-04  1.44525e-02  1.00184e-02
       H -1.75859e-02 -7.03553e-03 -4.79939e-03
       H  1.77989e-02 -6.51466e-03 -4.74593e-03
       O -5.17032e-04 -1.43766e-02  9.91474e-03
       H -1.76208e-02  6.96530e-03 -4.50244e-03
       H  1.78249e-02  6.49524e-03 -4.79968e-03
       O -9.28522e-04 -1.37628e-02  9.08015e-03
       H  3.17658e-04 -3.45975e-03 -1.92331e-02
       H  4.38934e-04  1.68765e-02  9.96842e-03
       O  1.24879e-02  5.86829e-03 -9.69723e-03
       H -1.46800e-02  1.22682e-02  4.59391e-03
       H  2.80338e-03 -1.86005e-02  5.01914e-03
       O  1.14110e-02 -7.88687e-03  1.05106e-02
       H -1.46049e-02 -1.17539e-02 -5.22895e-03
       H  3.19692e-03  1.87722e-02 -4.82798e-03
       O  1.16310e-02 -6.81458e-03 -1.08769e-02
       H  3.45645e-03 -1.85532e-03  1.91144e-02
       H -1.47609e-02  8.64472e-03 -9.51342e-03
       O  1.19929e-02  6.25854e-03  1.09995e-02
       H  3.20472e-03  2.16470e-03 -1.91958e-02
       H -1.48939e-02 -8.42186e-03  9.34239e-03
       O  1.07157e-02 -7.57905e-03  1.00281e-02
       H  3.48401e-03 -1.39177e-03 -1.91715e-02
       H -1.45723e-02  8.64199e-03  9.61578e-03
       O  1.27869e-02  6.50831e-03 -9.16865e-03
       H  2.75330e-03  1.64276e-03  1.91412e-02
       H -1.48402e-02 -8.01646e-03 -9.88645e-03
       O  1.08930e-03  1.38748e-02 -8.98358e-03
       H -8.48196e-05  3.43032e-03  1.90947e-02
       H -5.97710e-04 -1.68353e-02 -9.99998e-03
       O -3.86389e-04  1.43494e-02 -9.61374e-03
       H -1.75352e-02 -7.07181e-03  5.20498e-03
       H  1.75759e-02 -7.16991e-03  4.60148e-03
       O -1.15643e-02  7.43475e-03 -9.15872e-03
       H -3.02588e-03 -1.90048e-02  4.40549e-03
       H  1.47458e-02  1.18230e-02  4.85581e-03
       O -1.15379e-02  7.46329e-03 -1.06474e-02
       H -3.25161e-03  1.50060e-03  1.92073e-02
       H  1.47877e-02 -8.78386e-03 -9.33749e-03
       O  1.00144e-05  1.41212e-02 -9.99035e-03
       H  3.57283e-04  3.35534e-03  1.89879e-02
       H -3.87631e-04 -1.70650e-02 -9.58950e-03
       O -1.17179e-02 -6.76603e-03 -1.01880e-02
       H  1.42669e-02 -1.20904e-02  5.43594e-03
       H -2.78639e-03  1.87240e-02  4.53371e-03
576
# CELL(abcABC):   34.06844    44.25621    27.81677    90.00000    90.00000    90.00000  Step:           1  Bead:       0 forces{atomic_unit}  cell{atomic_unit}
       O -1.22661e-04  1.43702e-02  1.02109e-02
       H  4.06376e-03 -8.13832e-03 -5.60592e-03
       H -3.58638e-03 -7.39076e-03 -5.51197e-03
       O  1.26690e-02 -7.14540e-03  1.02826e-02
       H -4.56007e-03  2.51748e-03 -8.15177e-03
       H -9.45964e-03  5.43523e-03 -2.14160e-03
       O -1.27693e-02  7.26577e-03  9.96983e-03
       H  4.57809e-03 -2.92826e-03 -8.67970e-03
       H  9.12257e-03 -4.76048e-03 -2.22920e-03
       O  8.00087e-05 -1.46979e-02  9.82226e-03
       H  4.17513e-03  8.20157e-03 -5.66833e-03
       H -3.29835e-03  7.06251e-03 -4.78894e-03
       O -1.27873e-02 -7.33041e-03  9.68795e-03
       H  8.16946e-03  4.02428e-04 -5.65024e-03
       H  5.02755e-03  7.16262e-03 -4.83054e-03
       O -1.10976e-03  1.45628e-02  1.02136e-02
       H  2.82901e-04 -5.16332e-03 -7.88452e-03
       H  6.21905e-04 -1.02586e-02 -2.31703e-03
       O  1.25689e-02 -7.43027e-03 -9.75910e-03
       H -4.99306e-03  7.74380e-03  5.70866e-03
       H -7.72148e-03  7.97899e-04  4.60878e-03
       O  1.28987e-02  7.38257e-03  1.00828e-02
       H -9.42406e-03 -2.24921e-04 -5.77375e-03
       H -4.39537e-03 -6.51832e-03 -4.62958e-03
       O -1.22046e-02  8.23889e-03 -1.03821e-02
       H  4.52391e-03 -3.30437e-03  9.13412e-03
       H  8.01446e-03 -4.71088e-03  2.04942e-03
       O -1.26971e-02  7.29298e-03 -1.08238e-02
       H  8.67664e-03 -1.16530e-04  5.77490e-03
       H  4.44447e-03 -6.89949e-03  4.85105e-03
       O  1.29912e-02  6.62824e-03  1.03482e-02
       H -4.96995e-03 -2.54373e-03 -8.96145e-03
       H -8.00727e-03 -4.63047e-03 -2.23597e-03
       O  1.00523e-03  1.48077e-02 -1.02936e-02
       H -3.74188e-04 -5.62901e-03  8.98771e-03
       H -1.20859e-04 -9.39767e-03  2.16932e-03
       O -1.31111e-02  6.61159e-03 -1.02668e-02
       H  4.96622e-03 -2.51386e-03  8.85503e-03
       H  7.97185e-03 -4.68291e-03  2.27053e-03
       O -9.00177e-04  1.47218e-02  1.04238e-02
       H  3.40357e-04 -5.61860e-03 -9.14378e-03
       H  4.67708e-05 -9.31249e-03 -2.07292e-03