2304
# CELL(abcABC):   51.10267    59.00829    55.63354    90.00000    90.00000    90.00000  Step:           0  Bead:       0 forces{atomic_unit}  cell{atomic_unit}
       O  1.29894e-02 -7.60200e-03  8.83824e-03
       H  2.68068e-03 -1.36216e-03 -1.90751e-02
       H -1.45500e-02  8.36478e-03  1.01680e-02
       O  6.49203e-04  1.39598e-02  9.78916e-03
       H -1.79184e-02 -6.23019e-03 -4.69428e-03
       H  1.76685e-02 -6.86740e-03 -4.52508e-03
       O -1.15512e-02  6.67627e-03  1.04520e-02
       H -3.31999e-03 -1.84245e-02 -5.28245e-03
       H  1.48171e-02  1.18770e-02 -4.60701e-03
       O  1.08740e-04 -1.38710e-02  9.67983e-03
       H  3.78696e-04 -3.56208e-03 -1.90394e-02
       H -3.26252e-04  1.68843e-02  9.76060e-03
       O -1.22725e-02  5.79163e-03 -1.01306e-02
       H -2.89477e-03 -1.85917e-02  4.93920e-03
       H  1.45802e-02  1.22939e-02  4.81955e-03
       O -9.65389e-05  1.47027e-02  8.98083e-03
       H -1.76903e-02 -6.95072e-03 -4.59362e-03
       H  1.76352e-02 -6.85445e-03 -4.47247e-03
       O  1.17324e-02 -7.15518e-03 -9.62969e-03
       H  2.98107e-03 -1.98522e-03  1.89790e-02
       H -1.43963e-02  8.70476e-03 -9.79115e-03
       O -8.14357e-04 -1.31400e-02  9.99530e-03
       H  5.36560e-04 -3.69245e-03 -1.91290e-02
       H  9.60812e-05  1.68494e-02  9.60548e-03
       O  2.29356e-05  1.48186e-02  9.18759e-03
       H -6.11288e-05  3.04304e-03 -1.91010e-02
       H -2.41573e-06 -1.69777e-02  9.74918e-03
       O  1.16448e-02 -6.62420e-03  1.04372e-02
       H -1.43446e-02 -1.21549e-02 -5.28253e-03
       H  2.81483e-03  1.87055e-02 -4.56560e-03
       O  1.13776e-02 -6.26843e-03 -1.06849e-02
       H  3.37596e-03 -2.08614e-03  1.91226e-02
       H -1.46117e-02  8.51694e-03 -9.40927e-03
       O  1.22565e-02  5.80348e-03  1.02138e-02
       H  2.84655e-03  2.28106e-03 -1.92504e-02
       H -1.47504e-02 -8.40141e-03  9.61314e-03
       O -1.27547e-02 -7.02866e-03  1.02639e-02
       H -2.85538e-03 -1.53532e-03 -1.90626e-02
       H  1.50472e-02  8.23313e-03  9.34874e-03
       O -1.16602e-02  6.74298e-03 -1.09819e-02
       H -3.40688e-03  1.72181e-03  1.90761e-02
       H  1.47912e-02 -8.48293e-03 -9.33996e-03
       O -1.08644e-03  1.34972e-02 -1.03406e-02
       H  6.46225e-04  3.69213e-03  1.92424e-02
       H  2.48761e-04 -1.70736e-02 -9.49370e-03
       O  2.64117e-05  1.39748e-02 -1.02484e-02
       H -1.74684e-02 -7.05912e-03  4.62943e-03
       H  1.76609e-02 -6.60830e-03  5.54307e-03
       O -1.05554e-03  1.31041e-02  9.97522e-03
       H  4.53941e-04  3.85061e-03 -1.91669e-02
       H  1.33791e-04 -1.69943e-02  9.69585e-03
       O  1.20481e-02  7.82060e-03 -9.32414e-03
       H  2.78463e-03  1.70395e-03  1.92277e-02
       H -1.43776e-02 -8.73828e-03 -9.86254e-03
       O  1.16652e-02  6.87548e-03  1.00369e-02
       H -1.47952e-02  1.17721e-02 -4.63400e-03
       H  3.26385e-03 -1.84707e-02 -5.22051e-03
       O  1.14121e-02 -7.94228e-03 -1.03149e-02
       H -1.46024e-02 -1.15355e-02  5.26204e-03
       H  3.23871e-03  1.87069e-02  4.97280e-03
       O  1.25340e-02  7.02324e-03 -1.04990e-02
       H -1.46509e-02  1.18640e-02  5.58144e-03
       H  2.32041e-03 -1.88460e-02  4.73828e-03
       O  1.21736e-02  5.72635e-03 -1.04857e-02
       H  2.94522e-03  2.44777e-03  1.92873e-02
       H -1.48024e-02 -8.24273e-03 -9.46181e-03
       O  1.11221e-02 -7.55102e-03 -1.02558e-02
       H  3.42127e-03 -1.40968e-03  1.90443e-02
       H -1.48160e-02  8.72062e-03 -9.51227e-03
       O  1.18469e-02 -7.75993e-03 -9.41800e-03
       H -1.47830e-02 -1.16203e-02  5.35570e-03
       H  2.77719e-03  1.87659e-02  4.40559e-03
       O  9.51683e-04  1.37648e-02  9.07095e-03
       H -3.44202e-05  3.26101e-03 -1.91685e-02
       H -4.28637e-04 -1.67598e-02  9.91631e-03
       O  1.10043e-03  1.41629e-02  1.05634e-02
       H -1.75787e-02 -6.70763e-03 -4.87361e-03
       H  1.72349e-02 -6.98508e-03 -5.30910e-03
       O -1.18538e-04 -1.33714e-02  1.04481e-02
       H -1.75596e-02  6.86833e-03 -4.56013e-03
       H  1.77747e-02  6.33297e-03 -5.28684e-03
       O -1.30303e-02  7.84725e-03  9.49497e-03
       H -2.67367e-03  1.38046e-03 -1.91835e-02
       H  1.46849e-02 -8.51455e-03  9.66436e-03
       O -1.13983e-02  8.26686e-03 -1.03420e-02
       H -3.19611e-03 -1.86954e-02  4.79656e-03
       H  1.46359e-02  1.15502e-02  5.43505e-03
       O -1.22184e-02 -7.22374e-03  8.93751e-03
       H  1.48308e-02 -1.20122e-02 -4.40187e-03
       H -3.25186e-03  1.88239e-02 -4.42637e-03
       O  1.12793e-02  8.06343e-03  1.04937e-02
       H -1.48408e-02  1.15506e-02 -5.26663e-03
       H  3.28268e-03 -1.86558e-02 -4.79533e-03
       O  1.24519e-02  6.20895e-03  9.20564e-03
       H  2.76200e-03  1.82734e-03 -1.92758e-02
       H -1.49263e-02 -8.04277e-03  9.86285e-03
       O -1.27265e-02  5.72961e-03 -1.02197e-02
       H -2.75925e-03 -1.85382e-02  5.36964e-03
       H  1.46299e-02  1.21609e-02  4.58748e-03
       O -1.19220e-02 -7.81329e-03  1.01427e-02
       H  1.48076e-02 -1.16990e-02 -4.76320e-03
       H -3.42882e-03  1.85172e-02 -4.71795e-03
       O  1.09794e-02 -7.97656e-03 -1.03250e-02
       H  3.55244e-03 -1.21624e-03  1.92395e-02
       H -1.46158e-02  8.73397e-03 -9.56291e-03
       O  1.25186e-02  5.80288e-03  9.05408e-03
       H  2.81219e-03  1.84239e-03 -1.91663e-02
       H -1.48286e-02 -7.92574e-03  9.92578e-03
       O  1.31155e-02 -7.24053e-03  8.95264e-03
       H  2.56151e-03 -1.81090e-03 -1.91394e-02
       H -1.45289e-02  8.31969e-03  1.00913e-02
       O -1.16863e-04 -1.41297e-02 -1.02206e-02
       H  5.22370e-04 -3.45191e-03  1.91715e-02
       H -3.56992e-04  1.70605e-02 -9.40458e-03
       O -1.18265e-02  6.87493e-03  1.04237e-02
       H -2.70417e-03 -1.85717e-02 -4.55089e-03
       H  1.44572e-02  1.18643e-02 -5.36589e-03
       O -6.38411e-04  1.38801e-02 -9.92737e-03
       H -1.75850e-02 -6.60986e-03  4.67374e-03
       H  1.77942e-02 -6.38779e-03  4.66001e-03
       O  1.69508e-04 -1.42619e-02 -8.95415e-03
       H -1.78290e-02  6.83659e-03  4.29784e-03
       H  1.77242e-02  6.82966e-03  4.46928e-03
       O -1.16958e-02  7.75151e-03 -9.24629e-03
       H -2.88716e-03  1.61929e-03  1.90551e-02
       H  1.44369e-02 -8.93702e-03 -9.78754e-03
       O  1.22565e-02  7.82553e-03  9.94526e-03
       H -1.48154e-02  1.17518e-02 -4.74528e-03
       H  3.18133e-03 -1.86945e-02 -4.59786e-03
       O  1.21632e-02 -7.65231e-03 -9.86384e-03
       H -1.47561e-02 -1.17705e-02  4.47427e-03
       H  3.33021e-03  1.87308e-02  4.79786e-03
       O -1.21857e-02  7.31187e-03 -1.05305e-02
       H -3.10540e-03 -1.84461e-02  5.42288e-03
       H  1.49452e-02  1.13766e-02  4.76757e-03
       O -1.25756e-02 -7.12447e-03  8.87430e-03
       H  1.47657e-02 -1.20989e-02 -4.57448e-03
       H -3.09494e-03  1.87350e-02 -4.50394e-03
       O  1.13576e-02 -6.53310e-03 -9.31764e-03
       H  3.05990e-03 -1.68721e-03  1.92810e-02
       H -1.46662e-02  8.49276e-03 -9.80788e-03
       O  1.07790e-02  7.39404e-03  1.02240e-02
       H  3.46461e-03  1.48313e-03 -1.92561e-02
       H -1.46231e-02 -8.54752e-03  9.51882e-03
       O  1.36581e-03 -1.37090e-02 -1.05891e-02
       H -1.78347e-02  6.50378e-03  4.76051e-03
       H  1.74254e-02  7.06769e-03  5.37655e-03
       O -1.14396e-03 -1.39075e-02 -9.16824e-03
       H  5.12541e-05 -3.38816e-03  1.93127e-02
       H  7.56751e-04  1.69367e-02 -9.90317e-03
       O  1.26317e-02  5.74898e-03  1.04295e-02
       H -1.45363e-02  1.20910e-02 -4.83788e-03
       H  2.68682e-03 -1.84610e-02 -5.52150e-03
       O -7.16559e-04  1.38814e-02 -9.92515e-03
       H -1.75751e-02 -6.79959e-03  4.55792e-03
       H  1.79280e-02 -6.21768e-03  4.77654e-03
       O -1.25960e-02 -6.76801e-03  9.93283e-03
       H -2.62348e-03 -2.13464e-03 -1.90547e-02
       H  1.44947e-02  8.75701e-03  9.73410e-03
       O -4.18724e-04  1.37554e-02  9.21421e-03
       H -1.76640e-02 -6.80993e-03 -5.05209e-03
       H  1.77823e-02 -6.86717e-03 -4.56955e-03
       O  1.19803e-02  7.91181e-03  9.85663e-03
       H -1.49139e-02  1.16859e-02 -4.70046e-03
       H  3.42753e-03 -1.85713e-02 -4.55691e-03
       O  1.28233e-02  6.45077e-03  9.17665e-03
       H  2.75088e-03  1.62677e-03 -1.91154e-02
       H -1.48189e-02 -8.08175e-03  9.88927e-03
       O  4.15357e-04  1.37908e-02  9.90247e-03
       H -2.25806e-04  3.33809e-03 -1.92513e-02
       H -3.66623e-05 -1.71942e-02  9.55900e-03
       O  6.11492e-04  1.45043e-02  1.00650e-02
       H -1.79243e-02 -6.50599e-03 -4.89948e-03
       H  1.75387e-02 -6.99265e-03 -4.67460e-03
       O -1.20752e-02  7.14856e-03  9.05813e-03
       H -3.07350e-03 -1.88842e-02 -4.37318e-03
       H  1.46270e-02  1.19384e-02 -4.29812e-03
       O  1.13079e-03 -1.38183e-02  9.02787e-03
       H -1.69817e-05 -3.41158e-03 -1.92053e-02
       H -6.65269e-04  1.68830e-02  9.93758e-03
       O -1.21991e-02  6.60917e-03 -8.89224e-03
       H -2.88003e-03 -1.87988e-02  4.72143e-03
       H  1.49406e-02  1.18776e-02  4.37581e-03
       O -1.15768e-02  6.80214e-03 -9.73188e-03
       H -3.01152e-03  1.67441e-03  1.92549e-02
       H  1.49558e-02 -8.61891e-03 -9.57196e-03
       O  1.27751e-02 -7.06296e-03 -1.04558e-02
       H  2.57982e-03 -2.09700e-03  1.91733e-02
       H -1.47014e-02  8.80673e-03 -9.33732e-03
       O  1.27093e-02 -7.28856e-03 -9.12400e-03
       H -1.47460e-02 -1.19250e-02  4.51307e-03
       H  2.84259e-03  1.88683e-02  4.72828e-03
       O -1.20464e-02 -6.05457e-03  1.04114e-02
       H -2.94147e-03 -2.15879e-03 -1.92365e-02
       H  1.47298e-02  8.46701e-03  9.50361e-03
       O -1.12143e-02  7.55979e-03 -1.00939e-02
       H -3.54628e-03  1.37499e-03  1.91153e-02
       H  1.46794e-02 -8.59167e-03 -9.65757e-03
       O  1.27710e-02  6.57455e-03  9.91660e-03
       H -1.46655e-02  1.22980e-02 -4.84858e-03
       H  2.74601e-03 -1.85713e-02 -4.43982e-03
       O  5.71292e-04  1.37307e-02 -9.11298e-03
       H -1.77910e-02 -6.95595e-03  4.22733e-03
       H  1.76931e-02 -6.81213e-03  5.09066e-03
       O -1.28340e-02  6.62551e-03 -9.97741e-03
       H -2.59072e-03 -1.88330e-02  4.58691e-03
       H  1.45050e-02  1.20838e-02  4.71700e-03
       O  1.18165e-03  1.36415e-02  1.01138e-02
       H -1.80766e-02 -6.36441e-03 -4.69613e-03
       H  1.76571e-02 -6.89176e-03 -5.02808e-03
       O -1.04369e-04  1.40127e-02 -1.00319e-02
       H -3.91573e-04  3.51434e-03  1.90699e-02
       H  4.87378e-04 -1.69407e-02 -9.62506e-03
       O -1.25861e-02  6.74440e-03  9.34301e-03
       H -2.81520e-03  1.56049e-03 -1.92141e-02
       H  1.49435e-02 -8.06875e-03  9.81942e-03
       O -1.18222e-02  7.34896e-03 -8.83040e-03
       H -2.97609e-03 -1.88323e-02  4.46910e-03
       H  1.47768e-02  1.18842e-02  4.93631e-03
       O -1.24162e-02 -7.85754e-03  1.03491e-02
       H  1.49273e-02 -1.16513e-02 -4.82829e-03
       H -3.09184e-03  1.87280e-02 -5.01737e-03
       O  1.24692e-02  7.14115e-03  8.81665e-03
       H -1.49450e-02  1.20554e-02 -4.23942e-03
       H  3.00303e-03 -1.89167e-02 -4.47653e-03
       O  1.17494e-02  7.83152e-03  9.40629e-03
       H  2.84818e-03  1.46209e-03 -1.91990e-02
       H -1.46231e-02 -8.96792e-03  9.58501e-03
       O -1.13865e-02 -7.96582e-03  1.07643e-02
       H -3.31088e-03 -1.29757e-03 -1.92512e-02
       H  1.48487e-02  8.82836e-03  9.19465e-03
       O -1.25131e-02  6.06640e-03 -9.06909e-03
       H -2.88537e-03  1.78693e-03  1.92060e-02
       H  1.48393e-02 -8.01003e-03 -9.96595e-03
       O  1.28120e-02  7.06404e-03  9.00732e-03
       H -1.49412e-02  1.20310e-02 -4.30143e-03
       H  2.87597e-03 -1.87646e-02 -4.52170e-03
       O  1.18681e-02 -7.78418e-03 -1.01962e-02
       H -1.47332e-02 -1.17570e-02  4.62468e-03
       H  3.43571e-03  1.85958e-02  4.76807e-03
       O  1.19263e-02  6.25674e-03 -9.44262e-03
       H -1.48140e-02  1.19421e-02  4.34190e-03
       H  2.95047e-03 -1.86773e-02  4.98561e-03
       O  1.16799e-02  6.71409e-03 -1.10022e-02
       H  3.20022e-03  1.86117e-03  1.89952e-02
       H -1.49236e-02 -8.57865e-03 -9.22780e-03
       O -1.29194e-02 -7.43111e-03 -9.05591e-03
       H -2.58760e-03 -1.45241e-03  1.90471e-02
       H  1.46280e-02  8.40224e-03 -9.80877e-03
       O -1.21982e-02 -7.08828e-03 -8.72375e-03
       H  1.46604e-02 -1.20843e-02  4.38910e-03
       H -2.97126e-03  1.87659e-02  4.16058e-03
       O  8.72481e-04  1.35622e-02  1.01914e-02
       H -3.48320e-04  3.62973e-03 -1.91754e-02
       H -1.08019e-04 -1.70630e-02  9.65854e-03
       O -1.08687e-02  7.47676e-03 -1.00383e-02
       H -3.52875e-03  1.49097e-03  1.91231e-02
       H  1.46418e-02 -8.67358e-03 -9.61941e-03
       O  7.37094e-04 -1.42832e-02  9.98869e-03
       H -1.77833e-02  6.38821e-03 -4.62052e-03
       H  1.76278e-02  6.98260e-03 -4.70475e-03
       O  1.25882e-02 -6.38996e-03 -9.63040e-03
       H -1.43846e-02 -1.23470e-02  4.66450e-03
       H  2.99115e-03  1.86040e-02  4.60037e-03
       O -1.20580e-02  6.90796e-03 -1.03036e-02
       H -2.72326e-03 -1.88008e-02  4.89163e-03
       H  1.43526e-02  1.19132e-02  5.37833e-03
       O -1.11056e-02 -7.76300e-03  1.00687e-02
       H  1.45642e-02 -1.17995e-02 -5.20756e-03
       H -3.29721e-03  1.87547e-02 -4.71698e-03
       O -1.27392e-03 -1.37064e-02  1.05446e-02
       H -1.74064e-02  7.02396e-03 -5.31882e-03
       H  1.77384e-02  6.58822e-03 -4.80259e-03
       O -1.20088e-02  7.46116e-03  9.21487e-03
       H -2.93826e-03  1.71093e-03 -1.91802e-02
       H  1.43496e-02 -8.75633e-03  1.00018e-02
       O  1.04522e-04 -1.43079e-02 -1.05772e-02
       H -1.74534e-02  6.67931e-03  5.43212e-03
       H  1.74325e-02  7.28747e-03  4.84766e-03
       O  5.51656e-04 -1.39249e-02 -8.93957e-03
       H  7.69305e-05 -3.36497e-03  1.91317e-02
       H -4.82575e-04  1.70239e-02 -1.00032e-02
       O -1.28943e-02  6.56284e-03  9.99470e-03
       H -2.65807e-03 -1.87266e-02 -4.72822e-03
       H  1.43785e-02  1.21419e-02 -4.81108e-03
       O -6.00804e-04  1.38897e-02 -9.84337e-03
       H -1.77296e-02 -6.68781e-03  4.72517e-03
       H  1.79505e-02 -6.47753e-03  4.53432e-03
       O -1.13009e-02 -6.71298e-03  1.07134e-02
       H -3.42060e-03 -1.96124e-03 -1.91102e-02
       H  1.47876e-02  8.59350e-03  9.42628e-03
       O -1.21790e-04 -1.41177e-02 -9.81085e-03
       H -2.19851e-04 -3.54095e-03  1.91059e-02
       H  4.11886e-04  1.67697e-02 -9.85776e-03
       O -1.22994e-02 -7.72719e-03 -9.66271e-03
       H -2.69331e-03 -1.73211e-03  1.91957e-02
       H  1.46521e-02  8.98951e-03 -9.66489e-03
       O -1.24746e-02 -6.75157e-03 -9.30430e-03
       H  1.50338e-02 -1.17542e-02  4.60589e-03
       H -2.82459e-03  1.85052e-02  5.14295e-03
       O  1.17480e-02 -6.61591e-03  1.10694e-02
       H  3.26134e-03 -2.12668e-03 -1.91441e-02
       H -1.48307e-02  8.53220e-03  9.33317e-03
       O  1.28346e-04 -1.41033e-02 -9.87193e-03
       H  1.25577e-04 -3.42109e-03  1.91062e-02
       H -4.03601e-04  1.67919e-02 -9.67577e-03
       O  1.22901e-03 -1.35945e-02  9.86682e-03
       H -1.80078e-02  6.42183e-03 -4.68813e-03
       H  1.74644e-02  6.80632e-03 -5.10380e-03
       O  1.24445e-02 -5.83095e-03 -1.02255e-02
       H -1.44888e-02 -1.21785e-02  4.85623e-03
       H  2.66323e-03  1.85562e-02  5.18683e-03
       O -1.19156e-02 -5.75184e-03  9.97816e-03
       H -3.10690e-03 -2.21381e-03 -1.91710e-02
       H  1.48463e-02  8.44162e-03  9.74181e-03
       O -1.20068e-02  6.64717e-03 -1.13120e-02
       H -3.12463e-03  1.92531e-03  1.90567e-02
       H  1.48866e-02 -8.49456e-03 -9.13922e-03
       O -1.23218e-03 -1.36320e-02  1.00618e-02
       H -1.73288e-02  6.81660e-03 -5.15964e-03
       H  1.78667e-02  6.70837e-03 -4.66351e-03
       O -1.19273e-02 -6.91095e-03 -1.03022e-02
       H  1.44831e-02 -1.19077e-02  5.31285e-03
       H -2.68168e-03  1.85582e-02  4.50972e-03
       O -4.10055e-04  1.42789e-02  9.89830e-03
       H  5.77418e-04  3.38122e-03 -1.90813e-02
       H -2.94447e-04 -1.68478e-02  9.78180e-03
       O -1.21834e-02 -7.08006e-03  9.10644e-03
       H  1.48517e-02 -1.20527e-02 -4.42284e-03
       H -3.15853e-03  1.87843e-02 -4.29825e-03
       O  1.28075e-02 -6.01738e-03 -9.25660e-03
       H  2.85487e-03 -1.80567e-03  1.91708e-02
       H -1.48169e-02  7.97016e-03 -9.92660e-03
       O  1.16735e-02  6.63236e-03  1.11088e-02
       H  3.20543e-03  1.86089e-03 -1.90882e-02
       H -1.48857e-02 -8.56130e-03  9.06799e-03
       O  1.30327e-02 -7.53932e-03  8.90352e-03
       H  2.67005e-03 -1.33695e-03 -1.90880e-02
       H -1.46239e-02  8.37695e-03  1.01060e-02
       O  8.95216e-05  1.36250e-02  1.00223e-02
       H -1.77330e-02 -6.29076e-03 -5.30881e-03
       H  1.76545e-02 -7.11035e-03 -4.45999e-03
       O  1.40727e-04  1.38377e-02 -9.50764e-03
       H  4.77998e-04  3.54890e-03  1.90892e-02
       H -4.14346e-04 -1.67895e-02 -9.88320e-03
       O  1.10522e-02  7.84256e-03  1.03895e-02
       H  3.42246e-03  1.25621e-03 -1.91343e-02
       H -1.46300e-02 -8.67938e-03  9.47467e-03
       O -1.21204e-02  5.70461e-03 -1.02359e-02
       H -2.95968e-03 -1.85463e-02  5.15090e-03
       H  1.43325e-02  1.22926e-02  4.74819e-03
       O -1.45227e-04  1.46915e-02  9.07869e-03
       H -1.76883e-02 -7.00779e-03 -4.72177e-03
       H  1.76732e-02 -6.82411e-03 -4.49942e-03
       O  1.20244e-02  6.77093e-03  1.05278e-02
       H -1.43319e-02  1.19958e-02 -5.34990e-03
       H  2.57299e-03 -1.87753e-02 -4.79094e-03
       O -1.09611e-03 -1.38435e-02  9.05919e-03
       H  1.83974e-04 -3.34097e-03 -1.91736e-02
       H  4.92839e-04  1.68618e-02  9.94733e-03
       O  1.76912e-04  1.52033e-02  9.46169e-03
       H -1.35143e-04  2.94706e-03 -1.91540e-02
       H  1.60021e-05 -1.69805e-02  9.69767e-03
       O  1.27754e-02 -6.48622e-03  1.02397e-02
       H -1.43707e-02 -1.22261e-02 -4.77057e-03
       H  2.69944e-03  1.87566e-02 -4.76694e-03
       O -1.13256e-02 -6.38889e-03 -1.08686e-02
       H -3.48888e-03 -1.94543e-03  1.91254e-02
       H  1.46249e-02  8.45224e-03 -9.36258e-03
       O -1.08001e-02  7.47637e-03  9.88645e-03
       H -3.47484e-03  1.52366e-03 -1.91768e-02
       H  1.46491e-02 -8.63257e-03  9.73280e-03
       O  1.12361e-02 -7.43735e-03  1.03252e-02
       H  3.34289e-03 -1.50250e-03 -1.91518e-02
       H -1.47371e-02  8.58834e-03  9.53330e-03
       O -1.13187e-03 -1.35858e-02 -1.02388e-02
       H  5.08954e-04 -3.68433e-03  1.92623e-02
       H  1.30024e-04  1.69722e-02 -9.66874e-03
       O -1.15992e-02  7.72067e-03  1.01441e-02
       H -3.14345e-03 -1.86462e-02 -4.88333e-03
       H  1.46553e-02  1.16351e-02 -5.04369e-03
       O -1.20109e-02 -6.89805e-03 -1.03409e-02
       H  1.47327e-02 -1.16391e-02  4.65552e-03
       H -3.13744e-03  1.84295e-02  5.54331e-03
       O  1.24215e-02  5.83659e-03 -1.04914e-02
       H -1.44613e-02  1.20446e-02  4.80791e-03
       H  2.54445e-03 -1.86224e-02  5.24301e-03
       O  1.81334e-04  1.39222e-02  1.03733e-02
       H -1.75036e-02 -6.96611e-03 -4.66777e-03
       H  1.74941e-02 -6.49667e-03 -5.62966e-03
       O -1.17698e-02 -6.97008e-03 -9.53816e-03
       H -3.07927e-03 -1.57041e-03  1.93116e-02
       H  1.47030e-02  8.60307e-03 -9.77269e-03
       O -1.10575e-02  7.61036e-03  1.04025e-02
       H -3.50761e-03  1.20892e-03 -1.92577e-02
       H  1.46033e-02 -8.60050e-03  9.47048e-03
       O  1.20399e-02  6.84328e-03 -1.03684e-02
       H -1.44488e-02  1.20466e-02  5.50113e-03
       H  2.72157e-03 -1.86286e-02  4.68498e-03
       O  1.25524e-02  6.14809e-03 -8.95255e-03
       H  3.00403e-03  1.65824e-03  1.91111e-02
       H -1.50529e-02 -7.99126e-03 -1.00600e-02
       O -1.21251e-02  7.72918e-03  1.01917e-02
       H -3.13193e-03 -1.87797e-02 -4.84114e-03
       H  1.46923e-02  1.16822e-02 -4.55647e-03
       O -1.27963e-02 -6.66726e-03 -9.71227e-03
       H  1.46289e-02 -1.21362e-02  4.49387e-03
       H -2.80372e-03  1.88694e-02  4.63925e-03
       O -1.16530e-02  7.19741e-03 -9.31514e-03
       H -2.92433e-03 -1.87934e-02  4.47459e-03
       H  1.46264e-02  1.18416e-02  5.04384e-03
       O -1.17299e-02 -6.93005e-03  9.87262e-03
       H  1.48037e-02 -1.18412e-02 -4.61432e-03
       H -3.43459e-03  1.85942e-02 -5.14389e-03
       O -1.16160e-02 -7.10640e-03 -9.55859e-03
       H -3.08506e-03 -1.69761e-03  1.92741e-02
       H  1.47453e-02  8.61382e-03 -9.79956e-03
       O -1.24537e-04 -1.34546e-02  1.09410e-02
       H  6.29716e-05 -3.74790e-03 -1.90682e-02
       H  1.37678e-04  1.69521e-02  9.26324e-03
       O  9.10264e-04 -1.39706e-02 -9.83860e-03
       H -1.81393e-02  6.38277e-03  4.53045e-03
       H  1.76513e-02  6.89312e-03  4.51128e-03
       O  1.30093e-02  7.44002e-03 -8.95994e-03
       H  2.57496e-03  1.70998e-03  1.90576e-02
       H -1.44534e-02 -8.45058e-03 -1.00157e-02
       O  1.25460e-02 -5.90757e-03 -1.03451e-02
       H  2.76581e-03 -2.28967e-03  1.91175e-02
       H -1.50837e-02  8.44001e-03 -9.51236e-03
       O  1.24591e-02 -7.61967e-03 -9.52656e-03
       H -1.49287e-02 -1.15925e-02  5.21990e-03
       H  2.36401e-03  1.87833e-02  4.52527e-03
       O -1.19147e-02  6.95087e-03 -1.04347e-02
       H -2.82843e-03 -1.87140e-02  4.64370e-03
       H  1.45917e-02  1.19512e-02  5.35526e-03
       O -1.26871e-02  6.52153e-03 -9.34006e-03
       H -2.77601e-03  1.79138e-03  1.92641e-02
       H  1.49314e-02 -8.00809e-03 -9.87013e-03
       O  1.17500e-02 -7.56862e-03 -8.88851e-03
       H  2.87029e-03 -1.60647e-03  1.91777e-02
       H -1.43945e-02  8.84454e-03 -1.00141e-02
       O  4.28443e-04  1.34775e-02 -9.32165e-03
       H -1.77213e-02 -6.94726e-03  4.32892e-03
       H  1.77565e-02 -6.69640e-03  4.94317e-03
       O  1.23157e-02  6.28919e-03 -9.90415e-03
       H -1.44256e-02  1.23496e-02  4.57939e-03
       H  2.89443e-03 -1.87312e-02  4.47474e-03
       O  8.17564e-05 -1.48405e-02 -9.03258e-03
       H -1.10160e-04 -2.96332e-03  1.91490e-02
       H -3.79624e-05  1.68466e-02 -9.82935e-03
       O -9.81297e-04  1.34188e-02 -1.01509e-02
       H  5.16094e-04  3.52254e-03  1.89931e-02
       H  2.30705e-04 -1.71645e-02 -9.44827e-03
       O  1.05976e-04  1.44477e-02 -9.15083e-03
       H -1.77322e-02 -6.81125e-03  4.49892e-03
       H  1.77922e-02 -6.88547e-03  4.68901e-03
       O  7.50609e-05 -1.43528e-02 -8.45014e-03
       H -1.79485e-02  6.74682e-03  4.21340e-03
       H  1.78677e-02  6.78694e-03  4.25546e-03
       O -1.25843e-02 -6.57212e-03  9.59008e-03
       H  1.44153e-02 -1.23581e-02 -4.76330e-03
       H -2.97855e-03  1.87710e-02 -4.43664e-03
       O -1.39447e-04  1.33737e-02 -1.11276e-02
       H  1.77155e-04  3.86225e-03  1.89709e-02
       H -3.39774e-06 -1.72604e-02 -9.08734e-03
       O  1.23514e-02  6.22403e-03  8.86149e-03
       H  2.92905e-03  1.84853e-03 -1.91066e-02
       H -1.47418e-02 -7.96170e-03  1.00953e-02
       O  4.82041e-04 -1.38756e-02 -1.00142e-02
       H -1.77814e-02  6.41953e-03  4.64365e-03
       H  1.77263e-02  6.84034e-03  4.56035e-03
       O  1.16603e-02  7.59862e-03 -9.03470e-03
       H  2.98980e-03  1.60964e-03  1.91922e-02
       H -1.44083e-02 -8.85857e-03 -9.93952e-03
       O -1.11949e-02  7.82643e-03  1.02284e-02
       H -3.24142e-03 -1.86079e-02 -4.71399e-03
       H  1.46944e-02  1.16421e-02 -5.22395e-03
       O -1.21246e-02 -7.60170e-03 -9.77950e-03
       H  1.46881e-02 -1.18196e-02  4.55042e-03
       H -3.24516e-03  1.87618e-02  4.79107e-03
       O -8.83502e-04  1.34443e-02  1.03312e-02
       H  2.81308e-04  3.65395e-03 -1.91852e-02
       H  3.00980e-04 -1.70543e-02  9.45770e-03
       O  1.12208e-02  6.65010e-03 -1.08660e-02
       H  3.41140e-03  2.03027e-03  1.91454e-02
       H -1.46620e-02 -8.56137e-03 -9.36554e-03
       O -1.15654e-02 -8.04500e-03 -1.05511e-02
       H -3.22126e-03 -1.18530e-03  1.90727e-02
       H  1.49359e-02  8.84582e-03 -9.20026e-03
       O -1.24528e-02 -7.33846e-03 -8.72293e-03
       H  1.47089e-02 -1.19576e-02  4.34436e-03
       H -3.07992e-03  1.87914e-02  4.46555e-03
       O -2.34770e-04  1.35495e-02  9.40386e-03
       H  2.81076e-04  3.53471e-03 -1.92290e-02
       H  1.00782e-04 -1.70484e-02  9.90128e-03
       O  8.00947e-04  1.45008e-02  9.94520e-03
       H -1.77779e-02 -6.39929e-03 -4.76366e-03
       H  1.76262e-02 -7.04216e-03 -4.70947e-03
       O  2.06823e-04 -1.42060e-02  1.06651e-02
       H -1.75318e-02  6.62006e-03 -5.46182e-03
       H  1.74026e-02  7.21947e-03 -4.83533e-03
       O  1.04721e-03 -1.36959e-02  9.01920e-03
       H -1.34310e-04 -3.48274e-03 -1.91037e-02
       H -4.88551e-04  1.67494e-02  9.96648e-03
       O -1.19276e-02  6.99330e-03 -9.72241e-03
       H -3.37397e-03 -1.86101e-02  5.11292e-03
       H  1.49067e-02  1.18607e-02  4.36065e-03
       O -1.21185e-02 -7.59288e-03  1.01984e-02
       H  1.46637e-02 -1.17689e-02 -4.65711e-03
       H -3.14263e-03  1.87192e-02 -4.81023e-03
       O  1.12432e-02 -6.62418e-03 -1.07770e-02
       H  3.40057e-03 -1.96903e-03  1.92073e-02
       H -1.46332e-02  8.47511e-03 -9.46961e-03
       O  1.10241e-02  7.21792e-03  9.89741e-03
       H  3.46937e-03  1.58625e-03 -1.91902e-02
       H -1.47367e-02 -8.55327e-03  9.73132e-03
       O -1.13861e-02 -7.27479e-03  1.02341e-02
       H -3.31646e-03 -1.47059e-03 -1.92210e-02
       H  1.46942e-02  8.54008e-03  9.63487e-03
       O -1.21047e-02  6.74798e-03 -9.62032e-03
       H -2.84433e-03  2.13531e-03  1.90450e-02
       H  1.44317e-02 -8.72357e-03 -9.80989e-03
       O  1.22454e-02  6.75914e-03  1.01381e-02
       H -1.44109e-02  1.20165e-02 -5.12586e-03
       H  2.62996e-03 -1.87433e-02 -4.78000e-03
       O  1.19467e-02 -7.70037e-03 -1.00645e-02
       H -1.48999e-02 -1.18317e-02  4.68033e-03
       H  3.40106e-03  1.85952e-02  4.73636e-03
       O  4.95321e-04  1.35175e-02  1.02897e-02
       H -4.68449e-04  3.52950e-03 -1.91465e-02
       H  9.17489e-05 -1.70056e-02  9.48731e-03
       O -2.61219e-05  1.48813e-02  9.40108e-03
       H -1.75597e-02 -7.15037e-03 -4.59566e-03
       H  1.76568e-02 -7.06728e-03 -4.71543e-03
       O -1.28856e-02 -7.79128e-03 -9.02882e-03
       H -2.54340e-03 -1.43639e-03  1.90936e-02
       H  1.44937e-02  8.52531e-03 -9.97705e-03
       O  1.03595e-04 -1.38444e-02  9.74349e-03
       H -3.32157e-04 -3.44408e-03 -1.90848e-02
       H  3.41432e-04  1.68926e-02  9.75672e-03
       O -9.48059e-04  1.35075e-02  1.03545e-02
       H  5.38334e-04  3.45828e-03 -1.91879e-02
       H  1.01399e-04 -1.72410e-02  9.27345e-03
       O  2.25882e-04  1.39234e-02  1.02326e-02
       H -1.76313e-02 -6.42933e-03 -5.16578e-03
       H  1.75899e-02 -7.03527e-03 -4.79384e-03
       O  1.21146e-02 -6.12659e-03 -1.03917e-02
       H  2.95164e-03 -2.02825e-03  1.92188e-02
       H -1.48623e-02  8.45304e-03 -9.45794e-03
       O  1.12469e-02  7.81103e-03  1.01967e-02
       H  3.25022e-03  1.29602e-03 -1.91076e-02
       H -1.46486e-02 -8.57571e-03  9.50635e-03
       O -1.13838e-02  7.88029e-03 -9.87901e-03
       H -3.32814e-03 -1.86298e-02  4.74345e-03
       H  1.47000e-02  1.17827e-02  5.12540e-03
       O -1.19962e-02 -7.58876e-03  1.00820e-02
       H  1.47689e-02 -1.17385e-02 -4.56688e-03
       H -3.16080e-03  1.87390e-02 -4.82487e-03
       O  1.29998e-02  7.56354e-03  9.37103e-03
       H -1.50396e-02  1.16801e-02 -4.55842e-03
       H  2.63441e-03 -1.88519e-02 -4.68500e-03
       O  1.22832e-02  7.15706e-03  9.99866e-03
       H  2.69901e-03  1.99629e-03 -1.90972e-02
       H -1.46627e-02 -8.86584e-03  9.48163e-03
       O -1.13855e-02 -7.94382e-03  1.06230e-02
       H -3.26394e-03 -1.26816e-03 -1.91314e-02
       H  1.47749e-02  8.88469e-03  9.15746e-03
       O -1.24472e-02  6.75425e-03 -9.92419e-03
       H -2.81471e-03  2.15079e-03  1.91238e-02
       H  1.44388e-02 -8.62075e-03 -9.70750e-03
       O  3.00344e-04  1.40586e-02 -1.01519e-02
       H  4.15000e-04  3.53686e-03  1.92383e-02
       H -4.25378e-04 -1.69167e-02 -9.62071e-03
       O -1.13631e-02 -7.91410e-03 -1.03018e-02
       H  1.45935e-02 -1.16043e-02  5.20254e-03
       H -3.01885e-03  1.88777e-02  4.79313e-03
       O -7.94488e-05  1.43399e-02  9.95651e-03
       H  5.49244e-04  3.41903e-03 -1.91638e-02
       H -3.68015e-04 -1.69569e-02  9.85022e-03
       O  1.24109e-02  7.45752e-03 -8.83832e-03
       H  2.80780e-03  1.52939e-03  1.91762e-02
       H -1.44631e-02 -8.45522e-03 -1.00526e-02
       O  1.96990e-04 -1.34518e-02  1.00500e-02
       H -1.78036e-02  6.16323e-03 -5.29185e-03
       H  1.76316e-02  7.02129e-03 -4.39753e-03
       O -1.27319e-02 -6.58988e-03 -1.00977e-02
       H  1.44229e-02 -1.21302e-02  4.78795e-03
       H -2.77597e-03  1.87267e-02  4.90130e-03
       O -1.24844e-02  6.37141e-03 -9.71162e-03
       H -2.98986e-03 -1.86268e-02  4.56048e-03
       H  1.45616e-02  1.23888e-02  4.67198e-03
       O  1.16537e-03  1.34717e-02  1.01169e-02
       H -1.79285e-02 -6.27066e-03 -4.74823e-03
       H  1.75539e-02 -6.86377e-03 -4.95757e-03
       O -1.14131e-02 -7.49068e-03 -1.03326e-02
       H -3.34941e-03 -1.53789e-03  1.91573e-02
       H  1.47345e-02  8.74386e-03 -9.55270e-03
       O -1.27905e-02  6.36395e-03  9.37564e-03
       H -2.84094e-03  1.59922e-03 -1.92507e-02
       H  1.49811e-02 -8.07393e-03  9.85423e-03
       O -1.20860e-02  7.79074e-03 -1.00136e-02
       H -3.36410e-03 -1.84977e-02  4.71369e-03
       H  1.48196e-02  1.17450e-02  4.82882e-03
       O -1.14595e-02  6.60176e-03 -9.44643e-03
       H -3.11389e-03  1.71400e-03  1.93297e-02
       H  1.46321e-02 -8.59015e-03 -9.79059e-03
       O  1.14735e-02  6.86469e-03  1.04122e-02
       H -1.48002e-02  1.17850e-02 -4.63506e-03
       H  3.34161e-03 -1.85127e-02 -5.23299e-03
       O  1.23545e-02 -7.25363e-03 -8.97691e-03
       H -1.48148e-02 -1.19626e-02  4.31542e-03
       H  3.03699e-03  1.88923e-02  4.53041e-03
       O -1.30094e-02  5.99572e-03 -1.06385e-02
       H -2.50365e-03 -1.86291e-02  5.38217e-03
       H  1.47861e-02  1.20141e-02  4.98183e-03
       O  5.35684e-04  1.38236e-02  9.12849e-03
       H -1.78113e-02 -6.79244e-03 -4.50480e-03
       H  1.76493e-02 -6.82799e-03 -4.96795e-03
       O -1.24742e-02 -7.50714e-03 -1.02121e-02
       H -3.12795e-03 -1.08606e-03  1.88989e-02
       H  1.49149e-02  8.31800e-03 -9.52258e-03