1080
# CELL(abcABC):   42.58556    44.25621    41.72515    90.00000    90.00000    90.00000  Step:           0  Bead:       0 forces{atomic_unit}  cell{atomic_unit}
       O -1.32306e-03  1.41750e-02  9.14723e-03
       H  2.08558e-04  3.32081e-03 -1.91418e-02
       H  5.45552e-04 -1.68225e-02  9.97758e-03
       O  1.20966e-02 -7.62211e-03  1.01803e-02
       H -1.46923e-02 -1.17687e-02 -4.54614e-03
       H  3.19010e-03  1.87215e-02 -4.77443e-03
       O  6.46419e-04 -1.42270e-02  1.02054e-02
       H -1.78454e-02  6.47345e-03 -4.79788e-03
       H  1.74235e-02  6.85032e-03 -4.60994e-03
       O -1.14888e-02  7.50316e-03  9.06659e-03
       H -3.09201e-03  1.69012e-03 -1.92436e-02
       H  1.43140e-02 -8.76612e-03  1.00211e-02
       O  1.18011e-02 -6.43247e-03  9.64914e-03
       H  2.96266e-03 -1.77134e-03 -1.93520e-02
       H -1.47052e-02  8.35790e-03  9.69885e-03
       O  1.10198e-02  7.87742e-03 -1.04586e-02
       H  3.50285e-03  1.32457e-03  1.92833e-02
       H -1.46518e-02 -8.74311e-03 -9.46462e-03
       O -1.28823e-02  6.13544e-03  1.05863e-02
       H -2.46748e-03 -1.85376e-02 -5.34513e-03
       H  1.46772e-02  1.18246e-02 -4.89241e-03
       O -5.28841e-05  1.35670e-02 -1.02896e-02
       H -1.76081e-02 -6.31110e-03  5.50425e-03
       H  1.76482e-02 -7.03528e-03  4.61113e-03
       O  1.25452e-02  5.82143e-03 -1.05483e-02
       H -1.44884e-02  1.20449e-02  4.78452e-03
       H  2.57921e-03 -1.86167e-02  5.40834e-03
       O  6.12812e-04  1.38748e-02  9.69908e-03
       H -1.78959e-02 -6.29737e-03 -4.62024e-03
       H  1.76811e-02 -6.71066e-03 -4.56463e-03
       O -1.18084e-02  6.51735e-03  1.01639e-02
       H -2.85159e-03 -1.87002e-02 -4.52300e-03
       H  1.42729e-02  1.23345e-02 -5.36952e-03
       O  1.93947e-04 -1.46537e-02  8.81203e-03
       H -8.66643e-05 -3.17784e-03 -1.90960e-02
       H -1.30343e-05  1.67941e-02  1.00858e-02
       O -1.19793e-02  7.09116e-03 -1.03385e-02
       H -3.22037e-03 -1.85045e-02  5.24336e-03
       H  1.49564e-02  1.17733e-02  4.79987e-03
       O -1.25350e-02 -7.18024e-03  8.64194e-03
       H  1.47703e-02 -1.20657e-02 -4.42759e-03
       H -2.94148e-03  1.88917e-02 -4.26499e-03
       O  1.18814e-02 -6.81589e-03 -9.81832e-03
       H  3.03980e-03 -2.02139e-03  1.91590e-02
       H -1.42596e-02  8.77779e-03 -9.74861e-03
       O  1.10466e-02  7.52168e-03  1.03231e-02
       H  3.35878e-03  1.40334e-03 -1.91505e-02
       H -1.47860e-02 -8.73012e-03  9.43890e-03
       O  6.24311e-04 -1.40819e-02 -9.96347e-03
       H -1.78156e-02  6.44730e-03  4.66263e-03
       H  1.76487e-02  6.70790e-03  4.67002e-03
       O -1.20067e-02  7.43516e-03 -9.90240e-03
       H -2.95607e-03  1.96196e-03  1.90502e-02
       H  1.43095e-02 -8.83447e-03 -9.73577e-03
       O  1.26306e-02  5.90859e-03  1.04837e-02
       H -1.45030e-02  1.21753e-02 -4.77174e-03
       H  2.67331e-03 -1.86597e-02 -5.32746e-03
       O  1.16696e-03  1.38271e-02 -9.87352e-03
       H -1.79162e-02 -6.47468e-03  4.74461e-03
       H  1.74719e-02 -6.84581e-03  5.13136e-03
       O  4.96169e-04  1.35364e-02  1.01470e-02
       H -3.02668e-04  3.67933e-03 -1.91328e-02
       H -2.84926e-05 -1.70727e-02  9.59301e-03
       O -1.17559e-02  6.57443e-03 -1.09282e-02
       H -3.28152e-03  2.13057e-03  1.90578e-02
       H  1.47815e-02 -8.40308e-03 -9.36744e-03
       O -1.11316e-02  7.83596e-03  1.02075e-02
       H -3.26896e-03 -1.87722e-02 -4.73470e-03
       H  1.46444e-02  1.16734e-02 -5.25463e-03
       O -1.17731e-02 -7.47645e-03 -8.89215e-03
       H  1.46476e-02 -1.19001e-02  5.02096e-03
       H -2.87869e-03  1.89285e-02  4.25478e-03
       O  1.25897e-02  7.26663e-03 -8.41685e-03
       H -1.49686e-02  1.20700e-02  4.18902e-03
       H  3.02494e-03 -1.89569e-02  4.23979e-03
       O  1.11165e-02  7.43886e-03 -1.04334e-02
       H  3.35946e-03  1.31647e-03  1.92106e-02
       H -1.48877e-02 -8.68724e-03 -9.29562e-03
       O -1.17952e-02 -7.11946e-03 -1.15313e-02
       H -3.26039e-03 -1.80669e-03  1.92095e-02
       H  1.49512e-02  8.70520e-03 -8.99192e-03
       O -1.30184e-02 -7.48101e-03 -9.46655e-03
       H  1.49294e-02 -1.17273e-02  4.63903e-03
       H -2.60683e-03  1.88716e-02  4.68704e-03
       O  1.28476e-02  6.32159e-03 -9.89939e-03
       H -1.44637e-02  1.23049e-02  4.57121e-03
       H  2.82352e-03 -1.85946e-02  4.79337e-03
       O  1.19025e-02 -7.75159e-03  1.01494e-02
       H -1.48560e-02 -1.17664e-02 -4.64755e-03
       H  3.47292e-03  1.85060e-02 -4.71485e-03
       O -1.11479e-02 -7.53405e-03 -1.02778e-02
       H -3.48712e-03 -1.36722e-03  1.91707e-02
       H  1.46042e-02  8.56304e-03 -9.50910e-03
       O -1.24727e-02  6.01999e-03  9.18041e-03
       H -2.85191e-03  1.78438e-03 -1.92554e-02
       H  1.47841e-02 -8.09839e-03  9.88850e-03
       O -1.25990e-02 -7.06069e-03  8.64533e-03
       H -2.69065e-03 -1.56818e-03 -1.90148e-02
       H  1.43880e-02  8.29610e-03  1.01082e-02
       O -1.13564e-02  7.98139e-03 -1.08203e-02
       H -3.35235e-03  1.19892e-03  1.92406e-02
       H  1.48082e-02 -8.82634e-03 -9.08142e-03
       O  1.22858e-02  5.60868e-03  1.03699e-02
       H -1.45366e-02  1.22749e-02 -4.66188e-03
       H  2.84138e-03 -1.85554e-02 -5.12510e-03
       O  5.81823e-04  1.39533e-02 -9.06128e-03
       H -1.77973e-02 -6.90333e-03  4.39772e-03
       H  1.75550e-02 -6.72742e-03  5.13113e-03
       O -1.24551e-02  6.39225e-03 -9.63088e-03
       H -2.64806e-03 -1.87646e-02  5.27608e-03
       H  1.48481e-02  1.18609e-02  4.49901e-03
       O -1.23069e-02  6.29937e-03 -1.04511e-02
       H -2.87726e-03  2.02804e-03  1.91480e-02
       H  1.49786e-02 -8.45197e-03 -9.42186e-03
       O -1.61409e-04  1.39484e-02 -9.85032e-03
       H  5.33565e-05  3.18815e-03  1.92140e-02
       H  7.78652e-05 -1.72553e-02 -9.53156e-03
       O  1.15238e-03  1.38120e-02 -1.04939e-02
       H -1.76793e-02 -6.55569e-03  4.83761e-03
       H  1.74637e-02 -7.04088e-03  5.26679e-03
       O  1.19854e-04  1.36241e-02  1.08571e-02
       H -1.89621e-04  3.66144e-03 -1.90168e-02
       H -6.15149e-05 -1.70529e-02  9.33222e-03
       O  1.13309e-02  6.55100e-03 -1.05991e-02
       H  3.34457e-03  2.23895e-03  1.90412e-02
       H -1.47032e-02 -8.65721e-03 -9.51408e-03
       O -1.24930e-02  6.66093e-03  9.44256e-03
       H -3.02003e-03 -1.88518e-02 -4.55061e-03
       H  1.45146e-02  1.22232e-02 -4.49376e-03
       O -1.17947e-02 -7.61209e-03 -9.88499e-03
       H  1.45856e-02 -1.19169e-02  4.63100e-03
       H -3.43962e-03  1.86567e-02  4.69268e-03
       O -9.21913e-04  1.37612e-02  8.98064e-03
       H  2.69240e-04  3.44352e-03 -1.90945e-02
       H  4.88205e-04 -1.67381e-02  1.00234e-02
       O -6.57137e-04  1.47166e-02  1.04241e-02
       H -1.74921e-02 -7.10546e-03 -4.82206e-03
       H  1.77538e-02 -6.69901e-03 -4.86691e-03
       O  2.34716e-05 -1.41683e-02  1.06595e-02
       H -1.74037e-02  6.63045e-03 -5.50843e-03
       H  1.74414e-02  7.23730e-03 -4.79328e-03
       O  6.67822e-04 -1.37764e-02  9.24398e-03
       H -7.64514e-05 -3.49164e-03 -1.93605e-02
       H -4.07319e-04  1.69641e-02  9.96108e-03
       O  1.15290e-02 -7.48447e-03  9.17554e-03
       H  2.97584e-03 -1.64693e-03 -1.92991e-02
       H -1.42372e-02  8.91286e-03  9.89452e-03
       O  1.09520e-03  1.39523e-02  1.04108e-02
       H -1.76399e-02 -6.67596e-03 -4.69021e-03
       H  1.75690e-02 -7.16414e-03 -5.37173e-03
       O -1.18094e-02 -5.70870e-03 -1.00165e-02
       H -3.07643e-03 -2.29777e-03  1.92093e-02
       H  1.46978e-02  8.37830e-03 -9.66068e-03
       O -1.14540e-02  7.10720e-03  1.08397e-02
       H -3.43356e-03  1.83146e-03 -1.91016e-02
       H  1.48032e-02 -8.65645e-03  9.43236e-03
       O -1.24431e-02  5.93991e-03 -9.72707e-03
       H -2.89622e-03 -1.87119e-02  5.17376e-03
       H  1.45781e-02  1.22042e-02  4.52320e-03
       O  1.33448e-03  1.36693e-02  9.99751e-03
       H -1.79185e-02 -6.44442e-03 -4.64029e-03
       H  1.74348e-02 -6.77056e-03 -5.26186e-03
       O  1.89048e-04  1.34524e-02 -1.08092e-02
       H -2.67761e-04  3.90100e-03  1.91069e-02
       H -8.58631e-05 -1.70193e-02 -9.47234e-03
       O -1.10066e-02  7.85981e-03  1.01987e-02
       H -3.54635e-03  1.28122e-03 -1.91821e-02
       H  1.45433e-02 -8.61011e-03  9.61197e-03
       O -1.24003e-02  7.10765e-03 -8.85341e-03
       H -3.15604e-03 -1.86901e-02  4.52618e-03
       H  1.47951e-02  1.20969e-02  4.47291e-03
       O -1.13334e-02 -8.11768e-03  1.05516e-02
       H  1.48032e-02 -1.15201e-02 -5.24520e-03
       H -3.17394e-03  1.86582e-02 -4.81672e-03
       O -1.23888e-02  7.08585e-03  1.05539e-02
       H -2.44805e-03 -1.87758e-02 -4.80600e-03
       H  1.45986e-02  1.18462e-02 -5.53644e-03
       O -1.22319e-02  5.82608e-03  1.04953e-02
       H -2.80832e-03  2.47532e-03 -1.93034e-02
       H  1.48866e-02 -8.41840e-03  9.44119e-03
       O  1.18398e-02 -7.01984e-03  9.79439e-03
       H  3.36238e-03 -1.42038e-03 -1.90899e-02
       H -1.47572e-02  8.06776e-03  9.74346e-03
       O  1.67566e-04 -1.38000e-02 -9.59917e-03
       H  3.87762e-04 -3.47076e-03  1.90281e-02
       H -5.18641e-04  1.68340e-02 -9.83196e-03
       O -8.98347e-04  1.38738e-02 -9.00273e-03
       H  2.37890e-05  3.21966e-03  1.92277e-02
       H  4.22610e-04 -1.68572e-02 -9.95777e-03
       O  7.18487e-05  1.48176e-02 -9.26709e-03
       H -1.76613e-02 -7.02648e-03  4.62526e-03
       H  1.75152e-02 -7.05451e-03  4.55870e-03
       O  1.18432e-02 -6.38867e-03  1.10260e-02
       H  3.29990e-03 -1.96635e-03 -1.91013e-02
       H -1.47701e-02  8.36118e-03  9.36492e-03
       O  1.19859e-02  6.45613e-03 -9.53495e-03
       H  2.94167e-03  1.87250e-03  1.92734e-02
       H -1.47995e-02 -8.49768e-03 -9.83546e-03
       O  4.87756e-05  1.48347e-02 -9.08664e-03
       H  1.14808e-05  2.98482e-03  1.90633e-02
       H -1.88387e-05 -1.69782e-02 -9.76855e-03
       O  1.16684e-02 -6.78108e-03 -1.01803e-02
       H -1.42456e-02 -1.21395e-02  5.38249e-03
       H  2.85815e-03  1.88489e-02  4.54240e-03
       O  1.27737e-02  5.94241e-03 -1.02690e-02
       H -1.45259e-02  1.20084e-02  4.73069e-03
       H  2.66146e-03 -1.85349e-02  5.33830e-03
       O  1.18865e-02 -6.81690e-03  1.05082e-02
       H -1.47608e-02 -1.16281e-02 -4.61819e-03
       H  3.10828e-03  1.84950e-02 -5.38232e-03
       O -1.26374e-03 -1.39114e-02  1.04824e-02
       H -1.74284e-02  7.13145e-03 -5.28251e-03
       H  1.77505e-02  6.57444e-03 -4.82241e-03
       O  1.32711e-04 -1.36145e-02  9.76549e-03
       H -1.43343e-04 -3.41913e-03 -1.93781e-02
       H -1.38453e-04  1.70101e-02  9.65645e-03
       O -1.20634e-03  1.37121e-02  1.06411e-02
       H  6.41668e-04  3.64592e-03 -1.91686e-02
       H  1.94133e-04 -1.72131e-02  9.35078e-03
       O  1.28302e-02  6.23331e-03 -9.33179e-03
       H  2.65836e-03  1.82839e-03  1.92942e-02
       H -1.48292e-02 -7.89192e-03 -9.86071e-03
       O -5.20498e-04  1.42619e-02 -1.00106e-02
       H -1.54335e-04  3.49104e-03  1.91234e-02
       H  4.94073e-04 -1.70537e-02 -9.67022e-03
       O  1.19974e-02 -6.67978e-03 -1.05139e-02
       H -1.42560e-02 -1.20532e-02  5.41671e-03
       H  2.53233e-03  1.87115e-02  4.70789e-03
       O -1.17710e-02  7.57715e-03 -9.67676e-03
       H -3.46466e-03 -1.86828e-02  4.65684e-03
       H  1.48096e-02  1.18070e-02  4.31765e-03
       O -1.22175e-02 -7.62804e-03  9.91681e-03
       H  1.47438e-02 -1.18540e-02 -4.46771e-03
       H -3.36548e-03  1.86777e-02 -4.85200e-03
       O  1.09047e-02 -7.26478e-03 -1.00044e-02
       H  3.63106e-03 -1.36816e-03  1.91734e-02
       H -1.46110e-02  8.54209e-03 -9.65676e-03
       O  1.11954e-02  6.69293e-03  1.06052e-02
       H  3.48063e-03  1.99928e-03 -1.90661e-02
       H -1.47307e-02 -8.52935e-03  9.50897e-03
       O -1.12571e-02 -6.77212e-03  9.46896e-03
       H -3.12489e-03 -1.73533e-03 -1.93420e-02
       H  1.47626e-02  8.47262e-03  9.77657e-03
       O  1.09343e-03 -1.38170e-02 -1.07335e-02
       H -6.02628e-04 -3.48313e-03  1.91856e-02
       H -2.05629e-04  1.72845e-02 -9.20666e-03
       O  2.28346e-04  1.40929e-02 -9.91699e-03
       H -3.32760e-04  3.49934e-03  1.91614e-02
       H  3.55095e-04 -1.67517e-02 -9.73560e-03
       O  1.20077e-02 -6.87105e-03 -1.03964e-02
       H -1.48437e-02 -1.16561e-02  4.60269e-03
       H  3.07302e-03  1.85618e-02  5.43178e-03
       O  8.30722e-06 -1.42227e-02 -8.74245e-03
       H -1.78615e-02  6.79431e-03  4.42657e-03
       H  1.78152e-02  6.92170e-03  4.17567e-03
       O  1.21305e-02  7.60621e-03 -9.11985e-03
       H  2.83595e-03  1.56206e-03  1.90879e-02
       H -1.44698e-02 -8.80630e-03 -9.89639e-03
       O  1.10764e-02 -7.55009e-03 -1.03967e-02
       H  3.41462e-03 -1.30604e-03  1.91568e-02
       H -1.48353e-02  8.68711e-03 -9.42066e-03
       O  1.16603e-02 -7.39443e-03 -9.03615e-03
       H -1.47249e-02 -1.18850e-02  4.94670e-03
       H  2.86587e-03  1.89476e-02  4.23909e-03
       O  1.29528e-02  7.40045e-03 -9.32829e-03
       H -1.49446e-02  1.17432e-02  4.64487e-03
       H  2.55427e-03 -1.88502e-02  4.56262e-03
       O  1.21303e-02  7.13070e-03 -1.01624e-02
       H  3.27153e-03  1.29629e-03  1.91838e-02
       H -1.49541e-02 -8.25448e-03 -9.46252e-03
       O -6.42551e-04 -1.42185e-02  9.65537e-03
       H -1.77069e-02  6.71868e-03 -4.58450e-03
       H  1.79756e-02  6.39708e-03 -4.65518e-03
       O -1.28055e-02 -6.55476e-03 -1.00603e-02
       H  1.44103e-02 -1.21445e-02  4.75015e-03
       H -2.82919e-03  1.87037e-02  4.86030e-03
       O -1.27374e-02  6.62851e-03 -1.01988e-02
       H -2.74332e-03 -1.86576e-02  4.68125e-03
       H  1.47946e-02  1.21698e-02  4.78233e-03
       O  5.26107e-04  1.40456e-02  8.89762e-03
       H -1.78682e-02 -7.01076e-03 -4.47387e-03
       H  1.76309e-02 -6.80698e-03 -4.90053e-03
       O -1.11542e-02 -7.38046e-03 -1.02534e-02
       H -3.33206e-03 -1.51010e-03  1.90729e-02
       H  1.47792e-02  8.67486e-03 -9.46363e-03
       O -1.22637e-02  7.25889e-03  9.88701e-03
       H -2.92022e-03  1.89592e-03 -1.89905e-02
       H  1.43441e-02 -8.86474e-03  9.68598e-03
       O  1.26058e-02  6.65304e-03 -1.01754e-02
       H -1.46985e-02  1.20712e-02  4.75068e-03
       H  2.87836e-03 -1.85662e-02  4.55985e-03
       O  5.43043e-05  1.48431e-02  8.92949e-03
       H -1.77259e-02 -7.01502e-03 -4.30307e-03
       H  1.78554e-02 -7.08757e-03 -4.55082e-03
       O  1.26875e-03 -1.38964e-02  1.03050e-02
       H -1.76904e-02  6.47248e-03 -4.72811e-03
       H  1.73656e-02  6.86391e-03 -5.32485e-03
       O  2.49870e-04 -1.30832e-02  9.38526e-03
       H -8.31068e-06 -3.53745e-03 -1.92381e-02
       H -5.19187e-05  1.69970e-02  9.74041e-03
       O  3.07041e-04  1.44533e-02  1.02400e-02
       H  2.03588e-04  3.40169e-03 -1.90119e-02
       H -4.02698e-04 -1.70868e-02  9.40372e-03
       O -1.18250e-02 -7.57622e-03  9.93851e-03
       H  1.45982e-02 -1.18537e-02 -4.70603e-03
       H -3.31495e-03  1.86874e-02 -4.72590e-03
       O  1.19563e-02 -6.76911e-03 -9.93769e-03
       H  2.97677e-03 -2.15258e-03  1.92384e-02
       H -1.43982e-02  8.79513e-03 -9.70735e-03
       O  1.10369e-02  7.14915e-03  1.00007e-02
       H  3.45038e-03  1.58360e-03 -1.91743e-02
       H -1.46694e-02 -8.64032e-03  9.63884e-03
       O  9.89175e-04 -1.42373e-02 -1.05872e-02
       H -1.75354e-02  6.69946e-03  5.01863e-03
       H  1.73643e-02  7.13039e-03  5.33770e-03
       O -1.03896e-03 -1.38371e-02 -9.06181e-03
       H  1.32442e-04 -3.47603e-03  1.91581e-02
       H  4.81293e-04  1.68959e-02 -9.97870e-03
       O  1.22439e-02  6.75998e-03  1.02985e-02
       H -1.43822e-02  1.19507e-02 -5.35109e-03
       H  2.58854e-03 -1.87152e-02 -4.84034e-03
       O -7.08179e-04  1.40953e-02 -9.60416e-03
       H -1.76313e-02 -6.77776e-03  4.60978e-03
       H  1.79679e-02 -6.20960e-03  4.69193e-03
       O -1.22820e-02 -6.29569e-03  1.07285e-02
       H -2.95933e-03 -2.08057e-03 -1.92077e-02
       H  1.49524e-02  8.53161e-03  9.20905e-03
       O -1.25509e-02 -6.70911e-03  1.02344e-02
       H  1.45551e-02 -1.20887e-02 -4.94668e-03
       H -2.82281e-03  1.86607e-02 -4.58178e-03
       O  1.25143e-02  6.83096e-03  9.18489e-03
       H -1.50982e-02  1.17828e-02 -4.49725e-03
       H  2.83603e-03 -1.86877e-02 -4.88804e-03
       O  1.25991e-02  5.96199e-03  8.94354e-03
       H  2.83932e-03  1.74638e-03 -1.92046e-02
       H -1.47895e-02 -8.02027e-03  1.00014e-02
       O  1.26248e-02 -6.40921e-03  9.28182e-03
       H  2.91536e-03 -1.59525e-03 -1.91352e-02
       H -1.47927e-02  8.05952e-03  9.86861e-03
       O  1.24690e-02 -5.96873e-03  1.04463e-02
       H -1.47142e-02 -1.19674e-02 -4.79107e-03
       H  2.76826e-03  1.84608e-02 -5.28438e-03
       O -1.09500e-02  7.55867e-03  1.02364e-02
       H -3.33152e-03 -1.85470e-02 -4.55513e-03
       H  1.45593e-02  1.17836e-02 -5.09375e-03
       O  2.21347e-04 -1.48215e-02  9.11029e-03
       H -2.44711e-04 -3.16488e-03 -1.91657e-02
       H -8.18806e-05  1.66936e-02  9.98369e-03
       O -1.19341e-02 -6.82754e-03  9.71419e-03
       H -3.47678e-03 -1.41775e-03 -1.90091e-02
       H  1.48392e-02  8.16870e-03  9.84466e-03
       O -1.29240e-02  5.86319e-03 -9.32851e-03
       H -2.79089e-03  1.82263e-03  1.92580e-02
       H  1.48458e-02 -7.88835e-03 -9.85554e-03
       O -1.21838e-02 -6.30043e-03 -1.05484e-02
       H -2.96876e-03 -2.05533e-03  1.91212e-02
       H  1.49274e-02  8.49129e-03 -9.37739e-03
       O -1.19186e-02 -7.68727e-03 -9.40015e-03
       H  1.47691e-02 -1.16722e-02  5.27598e-03
       H -2.71908e-03  1.88396e-02  4.51738e-03
       O -8.23849e-05  1.30143e-02  1.06717e-02
       H -1.09403e-04  3.96160e-03 -1.90851e-02
       H  4.90034e-05 -1.69198e-02  9.40292e-03
       O  1.20514e-02  7.44322e-03 -9.86393e-03
       H  2.83325e-03  1.92869e-03  1.91003e-02
       H -1.42543e-02 -8.88091e-03 -9.76192e-03
       O  1.23032e-02 -7.92410e-03 -9.66458e-03
       H  2.68734e-03 -1.48426e-03  1.91805e-02
       H -1.46602e-02  8.94603e-03 -9.49960e-03
       O  2.51915e-04  1.38827e-02 -1.04850e-02
       H -1.75843e-02 -6.44769e-03  5.38624e-03
       H  1.75003e-02 -7.23421e-03  4.68895e-03
       O -9.91303e-05  1.41291e-02  1.01294e-02
       H  5.11697e-04  3.52835e-03 -1.91682e-02
       H -3.07245e-04 -1.69205e-02  9.62586e-03
       O -1.15240e-02 -7.72900e-03  1.03616e-02
       H  1.45954e-02 -1.16313e-02 -5.26291e-03
       H -2.85312e-03  1.87463e-02 -4.73470e-03
       O -1.17854e-02  7.41819e-03  8.95301e-03
       H -2.99349e-03 -1.88899e-02 -4.46701e-03
       H  1.46747e-02  1.19047e-02 -4.94700e-03
       O -1.32037e-02  7.36745e-03  9.35071e-03
       H -2.57611e-03  1.61905e-03 -1.91582e-02
       H  1.46112e-02 -8.32368e-03  9.85212e-03
       O -1.21558e-02 -7.66793e-03  9.21636e-03
       H -2.71449e-03 -1.60895e-03 -1.92205e-02
       H  1.44285e-02  8.86385e-03  9.89337e-03
       O -1.07157e-02  7.40099e-03 -1.00968e-02
       H -3.59921e-03  1.41660e-03  1.91149e-02
       H  1.45672e-02 -8.55195e-03 -9.53509e-03
       O  1.10153e-02  7.85558e-03  1.04491e-02
       H -1.46757e-02  1.17061e-02 -5.21067e-03
       H  3.35497e-03 -1.87637e-02 -4.66777e-03
       O  1.26530e-02 -6.50141e-03 -9.45990e-03
       H -1.43791e-02 -1.23207e-02  4.59015e-03
       H  2.90779e-03  1.86466e-02  4.56823e-03
       O -1.27199e-02  6.57432e-03 -1.00459e-02
       H -2.84287e-03 -1.86881e-02  4.84303e-03
       H  1.43042e-02  1.22009e-02  4.76631e-03
       O -1.07693e-04  1.47450e-02  8.90081e-03
       H -1.77963e-02 -6.99573e-03 -4.54100e-03
       H  1.77453e-02 -6.97099e-03 -4.31371e-03
       O -1.93929e-04 -1.41239e-02  1.07385e-02
       H -1.74267e-02  7.10453e-03 -4.83503e-03
       H  1.75633e-02  6.64287e-03 -5.60927e-03
       O -8.25369e-05 -1.36171e-02  9.68126e-03
       H  8.44117e-05 -3.30350e-03 -1.92194e-02
       H -1.80436e-05  1.72600e-02  9.45733e-03
       O  3.35427e-04  1.53154e-02  9.20383e-03
       H -1.55404e-04  2.92683e-03 -1.91554e-02
       H -6.50539e-05 -1.69966e-02  9.80256e-03
       O  1.21203e-02 -6.18117e-03  9.37456e-03
       H -1.49337e-02 -1.20262e-02 -4.36471e-03
       H  2.92517e-03  1.86269e-02 -5.05067e-03
       O  8.55440e-05 -1.45346e-02  9.14958e-03
       H -1.76882e-02  6.96666e-03 -4.46893e-03
       H  1.76784e-02  7.13001e-03 -4.38463e-03
       O  3.27746e-04 -1.36148e-02  9.43568e-03
       H  5.99525e-05 -3.41164e-03 -1.92176e-02
       H -1.20284e-04  1.69918e-02  9.75529e-03
       O -1.23697e-02 -6.99025e-03  9.96039e-03
       H -3.11631e-03 -1.67037e-03 -1.91703e-02
       H  1.48793e-02  8.17121e-03  9.75784e-03
       O -1.20441e-02  6.70355e-03 -9.81370e-03
       H -2.84028e-03  1.96257e-03  1.91743e-02
       H  1.45603e-02 -8.59223e-03 -9.68078e-03
       O  1.27111e-02 -6.91255e-03 -1.03711e-02
       H  2.58735e-03 -2.30950e-03  1.91848e-02
       H -1.46768e-02  8.77454e-03 -9.36690e-03
       O  1.25921e-02 -7.17890e-03 -9.36295e-03
       H -1.48355e-02 -1.19478e-02  4.63209e-03
       H  2.72917e-03  1.88858e-02  4.51335e-03
       O  5.83187e-04 -1.40616e-02 -9.56962e-03
       H -1.76547e-02  6.94189e-03  4.46803e-03
       H  1.76132e-02  7.11499e-03  5.05099e-03
       O -6.65803e-04 -1.44312e-02 -9.48920e-03
       H  1.67949e-05 -3.20601e-03  1.91193e-02
       H  3.86408e-04  1.70395e-02 -9.73192e-03
       O -9.40367e-04  1.42486e-02 -9.27084e-03
       H  1.55544e-04  3.21705e-03  1.91107e-02
       H  5.58099e-04 -1.71440e-02 -9.67621e-03
       O  1.20927e-02 -5.71268e-03 -1.01280e-02
       H -1.45036e-02 -1.21438e-02  4.60575e-03
       H  2.77829e-03  1.85739e-02  5.05243e-03
       O  6.05847e-04 -1.40564e-02 -9.49668e-03
       H -1.76399e-02  6.97985e-03  4.46532e-03
       H  1.75690e-02  7.10682e-03  5.15280e-03
       O  1.19648e-02  6.88785e-03 -9.59709e-03
       H  2.81392e-03  2.31988e-03  1.90724e-02
       H -1.44313e-02 -8.76196e-03 -9.84018e-03
       O -1.28504e-02 -6.68311e-03 -9.61705e-03
       H -2.70267e-03 -1.68892e-03  1.92276e-02
       H  1.49690e-02  8.27101e-03 -9.70386e-03
       O -1.20721e-02 -7.89953e-03 -9.95040e-03
       H  1.48675e-02 -1.16593e-02  4.73514e-03
       H -3.30684e-03  1.85991e-02  4.78653e-03
       O  1.42660e-03  1.34312e-02  1.02706e-02
       H -6.14741e-04  3.66275e-03 -1.92584e-02
       H -2.44179e-04 -1.69654e-02  9.52798e-03
       O  5.61589e-04  1.43246e-02  1.00603e-02
       H -1.78810e-02 -6.63940e-03 -4.84636e-03
       H  1.75988e-02 -6.88588e-03 -4.59645e-03
       O  2.51130e-04 -1.38552e-02  1.02340e-02
       H -1.76633e-02  6.40393e-03 -5.20664e-03
       H  1.76468e-02  7.04506e-03 -4.75100e-03
       O -8.15414e-04 -1.31802e-02  9.98828e-03
       H  4.97375e-04 -3.75831e-03 -1.91284e-02
       H  1.79838e-04  1.70477e-02  9.66659e-03
       O -1.15953e-02  6.83649e-03 -1.00193e-02
       H -3.24727e-03 -1.85592e-02  5.07785e-03
       H  1.47240e-02  1.18014e-02  4.53453e-03
       O -1.16264e-02 -6.82284e-03  1.02117e-02
       H  1.47859e-02 -1.16320e-02 -4.52206e-03
       H -3.31351e-03  1.83741e-02 -5.35988e-03
       O  1.18859e-02 -6.29343e-03 -1.03397e-02
       H  3.01817e-03 -2.18759e-03  1.92283e-02
       H -1.46961e-02  8.47526e-03 -9.50931e-03
       O -1.16374e-03 -1.37914e-02  1.06737e-02
       H  6.18780e-04 -3.48246e-03 -1.92506e-02
       H  2.01442e-04  1.71872e-02  9.34075e-03
       O  1.26373e-02 -6.17985e-03  9.33667e-03
       H  2.80808e-03 -1.72536e-03 -1.90760e-02
       H -1.49758e-02  8.10167e-03  9.72686e-03
       O  1.28879e-02 -6.02032e-03  1.07321e-02
       H -1.46783e-02 -1.19802e-02 -4.92548e-03
       H  2.51530e-03  1.85602e-02 -5.53244e-03
       O  5.61408e-04 -1.44148e-02  9.68381e-03
       H -1.76026e-02  7.20309e-03 -4.60555e-03
       H  1.74186e-02  7.03416e-03 -5.30704e-03
       O -7.28015e-04 -1.35166e-02  1.03166e-02
       H  2.23051e-04 -3.72608e-03 -1.92649e-02
       H  1.64008e-04  1.71383e-02  9.54543e-03
       O  1.10618e-02 -7.84405e-03  1.03996e-02
       H  3.40856e-03 -1.36386e-03 -1.92372e-02
       H -1.46226e-02  8.68148e-03  9.50298e-03
       O -2.77362e-05 -1.35239e-02 -1.08867e-02
       H -5.92302e-06 -3.65837e-03  1.90054e-02
       H -6.52242e-05  1.72983e-02 -9.29896e-03
       O -1.25300e-02 -7.53987e-03 -1.02820e-02
       H -2.66990e-03 -1.91596e-03  1.91239e-02
       H  1.45980e-02  8.94327e-03 -9.34953e-03
       O -6.88141e-05  1.41235e-02 -9.09680e-03
       H -1.77850e-02 -6.90192e-03  4.41044e-03
       H  1.78373e-02 -6.79138e-03  4.45294e-03
       O  1.27121e-02  6.72184e-03 -1.01928e-02
       H -1.44630e-02  1.20025e-02  4.71073e-03
       H  2.68007e-03 -1.88120e-02  4.69993e-03
       O -6.17114e-04  1.43730e-02  9.39796e-03
       H -1.77516e-02 -6.92428e-03 -4.40576e-03
       H  1.79508e-02 -6.48337e-03 -4.61667e-03
       O  2.22150e-04 -1.38530e-02  1.04275e-02
       H -1.75681e-02  6.37345e-03 -5.39777e-03
       H  1.75609e-02  7.05557e-03 -4.93345e-03
       O -1.05786e-03 -1.30452e-02  1.00974e-02
       H  5.45057e-04 -3.84790e-03 -1.90827e-02
       H  1.36864e-04  1.69853e-02  9.57262e-03
       O  1.22739e-02  5.83006e-03 -1.01012e-02
       H -1.45032e-02  1.22889e-02  4.62906e-03
       H  2.80427e-03 -1.86798e-02  5.04977e-03
       O -1.24424e-03 -1.43042e-02 -9.32918e-03
       H  1.04148e-04 -3.24898e-03  1.92554e-02
       H  6.86503e-04  1.69324e-02 -9.84901e-03
       O -1.22105e-02 -6.00010e-03 -1.02444e-02
       H -2.89712e-03 -2.08127e-03  1.92387e-02
       H  1.48006e-02  8.43467e-03 -9.55410e-03
       O -1.24585e-02 -6.75435e-03 -9.57542e-03
       H  1.50908e-02 -1.17505e-02  4.60493e-03
       H -2.82508e-03  1.87031e-02  5.12444e-03
       O -1.24254e-02 -6.97582e-03  9.99812e-03
       H -2.67764e-03 -2.20966e-03 -1.91147e-02
       H  1.44983e-02  8.66653e-03  9.68919e-03
       O -1.32999e-04 -1.41182e-02 -1.00660e-02
       H -2.48172e-04 -3.40404e-03  1.91348e-02
       H  5.35599e-04  1.70508e-02 -9.42571e-03
       O  1.25882e-02 -7.77946e-03 -9.02411e-03
       H  2.74984e-03 -1.47431e-03  1.90952e-02
       H -1.44592e-02  8.35354e-03 -9.95072e-03
       O -6.98727e-04  1.37946e-02 -9.97551e-03
       H -1.76284e-02 -6.58651e-03  4.61364e-03
       H  1.78431e-02 -6.28140e-03  4.73969e-03
       O -9.92025e-05 -1.44588e-02 -9.33109e-03
       H -1.77492e-02  7.12367e-03  4.51112e-03
       H  1.76830e-02  6.83571e-03  4.60317e-03
       O  1.17711e-03 -1.45720e-02 -9.66348e-03
       H -2.79440e-04 -3.02125e-03  1.92730e-02
       H -5.70508e-04  1.70694e-02 -9.54977e-03
       O  1.20072e-02  7.60817e-03  9.55300e-03
       H -1.46569e-02  1.19095e-02 -4.55139e-03
       H  3.42741e-03 -1.86367e-02 -4.55820e-03
       O  1.22269e-02 -7.16897e-03 -1.06869e-02
       H -1.49894e-02 -1.14347e-02  4.82677e-03
       H  2.99103e-03  1.84080e-02  5.56274e-03
       O  5.90325e-05 -1.42792e-02 -8.67032e-03
       H -1.78631e-02  6.71534e-03  4.52477e-03
       H  1.78522e-02  6.81432e-03  4.28303e-03
       O -1.22673e-02 -6.44006e-03  1.01254e-02
       H  1.44248e-02 -1.22366e-02 -4.67773e-03
       H -2.98180e-03  1.88067e-02 -4.60162e-03
       O  1.12963e-02 -7.36847e-03 -1.04261e-02
       H  3.34806e-03 -1.58335e-03  1.92645e-02
       H -1.47168e-02  8.58787e-03 -9.47506e-03
       O  1.20079e-02  6.87696e-03  9.77252e-03
       H  3.33218e-03  1.39244e-03 -1.91286e-02
       H -1.48651e-02 -8.15733e-03  9.76418e-03
       O  1.21550e-02 -7.24080e-03  1.00509e-02
       H  3.34392e-03 -1.25858e-03 -1.92002e-02
       H -1.46869e-02  8.25535e-03  9.68857e-03
       O  1.09372e-02  7.16392e-03 -9.99669e-03
       H  3.46313e-03  1.39664e-03  1.91924e-02
       H -1.45944e-02 -8.48647e-03 -9.56523e-03
       O -1.15944e-02  6.91363e-03  1.01499e-02
       H -3.46889e-03 -1.85451e-02 -5.37291e-03
       H  1.48870e-02  1.18016e-02 -4.41586e-03
       O -1.23942e-02 -7.20689e-03 -8.77932e-03
       H  1.45760e-02 -1.20482e-02  4.42900e-03
       H -3.08062e-03  1.87696e-02  4.50671e-03
       O -1.25237e-02  5.95325e-03 -1.04418e-02
       H -2.73947e-03 -1.84676e-02  5.17974e-03
       H  1.46488e-02  1.20815e-02  4.81440e-03
       O -1.15556e-02  6.46864e-03 -9.32628e-03
       H -3.10093e-03  1.72615e-03  1.92764e-02
       H  1.48112e-02 -8.40444e-03 -9.85067e-03
       O  1.26296e-02 -6.74246e-03 -9.16870e-03
       H  2.82860e-03 -1.61157e-03  1.91729e-02
       H -1.48569e-02  8.07082e-03 -9.92243e-03
       O  1.21155e-02 -7.79332e-03 -1.01116e-02
       H -1.49877e-02 -1.15631e-02  4.58557e-03
       H  3.25224e-03  1.85664e-02  4.78249e-03
       O -1.29298e-02  6.56007e-03 -9.83247e-03
       H -2.71801e-03 -1.88146e-02  4.66183e-03
       H  1.44134e-02  1.21925e-02  4.68478e-03
       O -1.01574e-04  1.37302e-02  9.77891e-03
       H -1.76767e-02 -6.85492e-03 -4.49660e-03
       H  1.78143e-02 -6.40657e-03 -5.18701e-03
       O -1.23197e-02 -6.86636e-03 -9.97035e-03
       H -3.17510e-03 -1.61584e-03  1.91206e-02
       H  1.48156e-02  7.94614e-03 -9.71493e-03
       O -1.13274e-02  7.75257e-03  1.02043e-02
       H -3.44845e-03  1.18605e-03 -1.91053e-02
       H  1.48090e-02 -8.73802e-03  9.55648e-03
       O  1.21601e-02  6.42408e-03 -9.30723e-03
       H -1.48294e-02  1.19095e-02  4.56135e-03
       H  2.85602e-03 -1.86372e-02  5.02735e-03
       O  1.22670e-02  7.02311e-03 -9.94794e-03
       H  3.11424e-03  1.35723e-03  1.90394e-02
       H -1.49875e-02 -8.10087e-03 -9.62277e-03
       O -1.22011e-02  6.73834e-03  1.02121e-02
       H -2.59948e-03 -1.88460e-02 -4.79148e-03
       H  1.43764e-02  1.20799e-02 -5.26179e-03
       O -1.19875e-02 -7.63923e-03 -1.00474e-02
       H  1.49814e-02 -1.16827e-02  4.62896e-03
       H -3.28940e-03  1.84965e-02  4.78212e-03
       O -1.24347e-02  7.15556e-03 -8.82396e-03
       H -3.04246e-03 -1.88841e-02  4.48182e-03
       H  1.49768e-02  1.19871e-02  4.13760e-03
       O -1.21538e-02  7.13785e-03 -1.01170e-02
       H -2.71594e-03  1.97853e-03  1.90673e-02
       H  1.45510e-02 -9.01892e-03 -9.39739e-03
       O  1.22038e-02 -7.03588e-03 -1.01637e-02
       H  3.10216e-03 -1.28991e-03  1.91425e-02
       H -1.49418e-02  8.16884e-03 -9.42304e-03