288
# CELL(abcABC):   25.55133    29.50414    27.81677    90.00000    90.00000    90.00000  Step:           0  Bead:       0 forces{atomic_unit}  cell{atomic_unit}
       O  1.31387e-02 -6.30112e-03  9.74141e-03
       H  2.56792e-03 -1.86803e-03 -1.92440e-02
       H -1.50797e-02  8.21429e-03  9.50106e-03
       O  1.23745e-02 -7.97112e-03  1.01458e-02
       H -1.49219e-02 -1.15048e-02 -4.70474e-03
       H  3.07221e-03  1.87487e-02 -4.87908e-03
       O -1.18316e-02 -6.33589e-03 -1.09799e-02
       H -3.30736e-03 -2.18693e-03  1.91177e-02
       H  1.47010e-02  8.38839e-03 -9.41116e-03
       O -1.15656e-02  6.65769e-03  1.09218e-02
       H -3.19587e-03  2.04328e-03 -1.89996e-02
       H  1.48080e-02 -8.67770e-03  9.25762e-03
       O  1.10433e-02 -7.92897e-03  1.01417e-02
       H  3.52775e-03 -1.29868e-03 -1.91349e-02
       H -1.46455e-02  8.69418e-03  9.63941e-03
       O -1.31902e-05 -1.33335e-02 -1.10505e-02
       H -8.08933e-05 -3.74471e-03  1.90052e-02
       H  1.66480e-04  1.71463e-02 -9.19347e-03
       O -3.75651e-04  1.35043e-02 -9.52512e-03
       H  2.05126e-04  3.51030e-03  1.92377e-02
       H  1.69376e-05 -1.69840e-02 -9.77632e-03
       O  9.17475e-05  1.46393e-02 -8.90488e-03
       H -1.76559e-02 -6.89776e-03  4.41757e-03
       H  1.76864e-02 -6.92307e-03  4.52915e-03
       O -7.07242e-04 -1.38386e-02 -9.64684e-03
       H -1.75519e-02  6.95980e-03  5.12035e-03
       H  1.77514e-02  6.89546e-03  4.51462e-03
       O -1.21343e-02  7.43621e-03 -9.97187e-03
       H -2.77733e-03  2.00388e-03  1.90796e-02
       H  1.43278e-02 -8.97385e-03 -9.74462e-03
       O -2.35468e-04  1.40015e-02 -9.84651e-03
       H  1.45411e-04  3.27093e-03  1.92354e-02
       H  6.03436e-05 -1.73306e-02 -9.47670e-03
       O -3.57538e-04  1.38928e-02 -1.02267e-02
       H -1.75303e-02 -7.04892e-03  4.71648e-03
       H  1.76679e-02 -6.42638e-03  5.22725e-03
       O  6.75837e-04  1.39971e-02  9.08311e-03
       H -8.20715e-05  3.36035e-03 -1.91741e-02
       H -4.35983e-04 -1.69834e-02  9.98339e-03
       O -1.21876e-02 -5.85057e-03  1.03532e-02
       H  1.45605e-02 -1.21216e-02 -4.71620e-03
       H -2.83294e-03  1.85318e-02 -5.12885e-03
       O  1.22180e-02  7.02130e-03  8.80671e-03
       H -1.45852e-02  1.21751e-02 -4.38291e-03
       H  3.06703e-03 -1.87461e-02 -4.39589e-03
       O -4.79765e-04 -1.49489e-02  8.83800e-03
       H  8.31458e-05 -3.07743e-03 -1.90986e-02
       H  2.03337e-04  1.67028e-02  1.01402e-02
       O  1.13399e-02  7.90329e-03 -9.96411e-03
       H -1.46452e-02  1.17817e-02  5.17861e-03
       H  3.31940e-03 -1.87661e-02  4.73838e-03
       O  1.19319e-02 -7.63142e-03  9.64628e-03
       H -1.46977e-02 -1.18838e-02 -4.62554e-03
       H  3.40246e-03  1.86892e-02 -4.69327e-03
       O -1.16865e-02  7.60326e-03  9.65405e-03
       H -2.88851e-03 -1.89191e-02 -4.49452e-03
       H  1.48476e-02  1.17821e-02 -5.22489e-03
       O -1.19271e-02  5.54257e-03  1.00137e-02
       H -3.05936e-03  2.35995e-03 -1.92313e-02
       H  1.49344e-02 -8.36948e-03  9.60900e-03
       O -2.25767e-04 -1.36263e-02 -1.01041e-02
       H -1.77226e-02  6.87348e-03  4.68333e-03
       H  1.78027e-02  6.43723e-03  5.11218e-03
       O  1.23028e-02  7.13335e-03 -1.00178e-02
       H  2.79666e-03  1.81832e-03  1.91375e-02
       H -1.44041e-02 -8.70609e-03 -9.61872e-03
       O -7.31182e-04  1.33345e-02 -1.02788e-02
       H  3.50923e-04  3.70993e-03  1.91768e-02
       H -1.27891e-05 -1.68619e-02 -9.47701e-03
       O  1.27789e-04  1.41464e-02 -1.05774e-02
       H -1.74591e-02 -6.61187e-03  5.41884e-03
       H  1.73629e-02 -7.19318e-03  4.84108e-03
       O  1.78619e-04  1.32275e-02  1.06473e-02
       H -3.94833e-05  3.89074e-03 -1.90138e-02
       H -1.47796e-04 -1.70742e-02  9.43850e-03
       O  1.19427e-02  6.91312e-03 -9.64889e-03
       H  2.87704e-03  2.28123e-03  1.91111e-02
       H -1.43724e-02 -8.70964e-03 -9.87099e-03
       O -1.26284e-02  6.59597e-03  9.42658e-03
       H -2.96627e-03 -1.87390e-02 -4.52278e-03
       H  1.45070e-02  1.23053e-02 -4.49715e-03
       O -1.16799e-02 -7.51430e-03 -9.89598e-03
       H  1.46103e-02 -1.19259e-02  4.61216e-03
       H -3.48979e-03  1.85184e-02  4.68008e-03
       O -5.46472e-04  1.36243e-02  1.04341e-02
       H  4.37182e-04  3.59919e-03 -1.92811e-02
       H  2.76471e-05 -1.70719e-02  9.52106e-03
       O -1.08549e-03  1.43626e-02  1.05514e-02
       H -1.72973e-02 -7.19349e-03 -5.28600e-03
       H  1.76030e-02 -6.83924e-03 -4.97305e-03
       O  1.24067e-03 -1.34171e-02  1.00173e-02
       H -1.79255e-02  6.29856e-03 -4.71404e-03
       H  1.74433e-02  6.81053e-03 -4.95698e-03
       O  1.31356e-02  7.96167e-03  9.26970e-03
       H  2.61385e-03  1.32255e-03 -1.91270e-02
       H -1.47297e-02 -8.50039e-03  9.76369e-03
       O  1.14428e-02  7.85461e-03 -1.01823e-02
       H -1.46232e-02  1.15912e-02  5.02107e-03
       H  3.18674e-03 -1.87418e-02  4.82593e-03
       O  1.23460e-02 -7.12162e-03  8.87650e-03
       H -1.47425e-02 -1.19884e-02 -4.45947e-03
       H  3.02634e-03  1.88038e-02 -4.43779e-03
       O -1.15556e-02 -7.37450e-03 -1.02542e-02
       H -3.39177e-03 -1.34988e-03  1.91885e-02
       H  1.47847e-02  8.63639e-03 -9.55911e-03
       O -1.20283e-02  6.77119e-03  9.62681e-03
       H -3.27504e-03  1.42334e-03 -1.90347e-02
       H  1.47945e-02 -8.08363e-03  9.83942e-03
       O -1.28913e-02 -6.21024e-03  9.13075e-03
       H -2.71703e-03 -1.90062e-03 -1.91774e-02
       H  1.49268e-02  7.93697e-03  1.00162e-02
       O -1.28705e-02 -6.81649e-03  9.81926e-03
       H  1.46487e-02 -1.21166e-02 -4.78902e-03
       H -2.78385e-03  1.86759e-02 -4.56514e-03
       O  1.20275e-02  6.79342e-03  1.05454e-02
       H -1.45707e-02  1.19870e-02 -5.48303e-03
       H  2.67281e-03 -1.86182e-02 -4.67248e-03
       O  1.17626e-02  5.79791e-03  1.01839e-02
       H  3.06030e-03  2.36876e-03 -1.91946e-02
       H -1.48158e-02 -8.36858e-03  9.54813e-03
       O  1.28836e-03 -1.37528e-02 -1.04908e-02
       H -1.77010e-02  6.56662e-03  4.74553e-03
       H  1.73341e-02  6.94322e-03  5.27811e-03
       O  1.65442e-04 -1.34515e-02 -9.67596e-03
       H -1.38167e-04 -3.45510e-03  1.92063e-02
       H -1.05773e-04  1.73295e-02 -9.58548e-03
       O  1.42123e-03  1.41479e-02 -9.28276e-03
       H -3.31946e-04  3.33742e-03  1.92207e-02
       H -4.82588e-04 -1.68075e-02 -9.88997e-03
       O  7.86213e-04  1.47586e-02 -1.01485e-02
       H -1.78020e-02 -6.76350e-03  4.84128e-03
       H  1.74609e-02 -7.10778e-03  4.72408e-03
       O -5.31926e-04 -1.38736e-02 -9.06917e-03
       H -1.75747e-02  6.81718e-03  5.00694e-03
       H  1.77297e-02  7.08609e-03  4.29337e-03
       O  1.14919e-02  7.88090e-03 -8.97716e-03
       H  3.01237e-03  1.56048e-03  1.91520e-02
       H -1.45006e-02 -8.92442e-03 -1.00199e-02
       O -1.17016e-02  6.83357e-03  1.00651e-02
       H -3.37271e-03 -1.85832e-02 -5.14165e-03
       H  1.47829e-02  1.19860e-02 -4.55977e-03
       O -1.28551e-02 -6.56017e-03 -9.91854e-03
       H  1.45049e-02 -1.20935e-02  4.74982e-03
       H -2.59849e-03  1.87722e-02  4.79153e-03
       O -1.13795e-02  8.15666e-03 -1.03292e-02
       H -3.10126e-03 -1.86644e-02  4.75142e-03
       H  1.46112e-02  1.15246e-02  5.41439e-03
       O -1.13784e-02  6.60910e-03 -9.49092e-03
       H -3.15169e-03  1.72221e-03  1.93510e-02
       H  1.47666e-02 -8.62180e-03 -9.73133e-03
       O  1.17846e-02  8.21024e-03  1.05793e-02
       H -1.48305e-02  1.13826e-02 -5.35773e-03
       H  2.90113e-03 -1.87565e-02 -4.84412e-03
       O  1.25687e-02 -7.17203e-03 -8.89878e-03
       H -1.47984e-02 -1.20755e-02  4.57906e-03
       H  2.99272e-03  1.87965e-02  4.52774e-03
       O -1.26572e-02  5.63559e-03 -1.04630e-02
       H -2.63690e-03 -1.85722e-02  5.29889e-03
       H  1.46209e-02  1.22482e-02  4.71660e-03
       O  6.98714e-04  1.39828e-02  9.74415e-03
       H -1.80123e-02 -6.30436e-03 -4.69679e-03
       H  1.77182e-02 -6.81854e-03 -4.50268e-03
       O -1.34275e-03 -1.39812e-02  1.03383e-02
       H -1.73451e-02  7.01906e-03 -5.44083e-03
       H  1.77102e-02  6.52805e-03 -4.82374e-03
       O  1.02094e-03 -1.38129e-02  9.18159e-03
       H -1.16591e-04 -3.43013e-03 -1.91821e-02
       H -4.47020e-04  1.69856e-02  9.87851e-03
       O -1.22944e-02  5.69445e-03 -1.01002e-02
       H -2.82851e-03 -1.85703e-02  4.93060e-03
       H  1.45195e-02  1.23644e-02  4.78529e-03
       O  9.26050e-05 -1.43168e-02 -9.97075e-03
       H  1.43461e-04 -3.38806e-03  1.90787e-02
       H -4.73735e-04  1.69464e-02 -9.65847e-03
       O  1.20019e-02 -6.28201e-03 -1.02965e-02
       H  3.02701e-03 -2.30755e-03  1.92826e-02
       H -1.47688e-02  8.48425e-03 -9.66279e-03
       O  1.26554e-02 -6.12603e-03 -1.02036e-02
       H -1.46684e-02 -1.20360e-02  4.90876e-03
       H  2.63981e-03  1.85853e-02  5.08174e-03
       O -1.21264e-02 -7.04695e-03  9.92397e-03
       H -2.73060e-03 -1.97148e-03 -1.89948e-02
       H  1.45392e-02  8.77666e-03  9.61665e-03
       O -8.82670e-05  1.38705e-02  1.05243e-02
       H -1.75216e-02 -6.58238e-03 -5.50880e-03
       H  1.75399e-02 -7.07779e-03 -4.68833e-03
       O -5.46121e-04 -1.42824e-02  9.95656e-03
       H -1.75021e-02  6.86627e-03 -4.54243e-03
       H  1.78488e-02  6.79816e-03 -4.68816e-03
       O  1.17671e-02  8.03138e-03  9.26719e-03
       H  2.96501e-03  1.37039e-03 -1.92190e-02
       H -1.43005e-02 -8.85117e-03  9.96039e-03
       O -1.14392e-02 -7.09188e-03  1.04156e-02
       H -3.46919e-03 -1.41697e-03 -1.92456e-02
       H  1.47667e-02  8.48788e-03  9.46085e-03
       O -1.23126e-02  7.02735e-03 -9.95808e-03
       H -3.03900e-03  1.30857e-03  1.91131e-02
       H  1.50036e-02 -8.19528e-03 -9.61233e-03
       O  1.25217e-02 -5.77797e-03 -1.06869e-02
       H  2.60697e-03 -2.44717e-03  1.91866e-02
       H -1.49910e-02  8.45348e-03 -9.10176e-03
       O  1.24388e-02 -7.21949e-03 -9.31452e-03
       H -1.49389e-02 -1.18944e-02  4.58603e-03
       H  2.92327e-03  1.87447e-02  4.48276e-03
       O  1.20409e-02  6.21699e-03 -9.41739e-03
       H -1.49332e-02  1.20053e-02  4.33097e-03
       H  2.96208e-03 -1.86081e-02  5.01757e-03
       O -2.15359e-04 -1.49991e-02 -8.85837e-03
       H  1.71755e-04 -3.08605e-03  1.91344e-02
       H  2.01761e-04  1.67622e-02 -1.01121e-02
       O -1.31057e-02 -6.68157e-03 -9.55913e-03
       H -2.55721e-03 -1.47808e-03  1.91274e-02
       H  1.51275e-02  8.16478e-03 -9.60389e-03
       O -1.26387e-02 -6.12672e-03 -1.01356e-02
       H  1.46750e-02 -1.20807e-02  4.84876e-03
       H -2.67457e-03  1.85690e-02  5.05784e-03
       O  1.16456e-02 -5.96922e-03  1.00639e-02
       H  3.06984e-03 -2.35035e-03 -1.91339e-02
       H -1.47408e-02  8.53366e-03  9.58422e-03
       O  1.19014e-02 -7.67962e-03  1.01979e-02
       H -1.48575e-02 -1.17172e-02 -4.75265e-03
       H  3.32077e-03  1.85291e-02 -4.70119e-03
       O  5.23169e-04 -1.39718e-02  9.71083e-03
       H -1.78369e-02  6.35505e-03 -4.62527e-03
       H  1.77300e-02  6.70124e-03 -4.60996e-03
       O -1.26991e-02  7.10344e-03  8.88916e-03
       H -2.70854e-03  1.59745e-03 -1.92169e-02
       H  1.44970e-02 -8.35357e-03  1.00428e-02
       O -1.27283e-02 -6.37805e-03  9.21645e-03
       H -2.83176e-03 -1.58051e-03 -1.90812e-02
       H  1.47112e-02  8.05001e-03  9.82068e-03
       O -1.28640e-02 -6.61809e-03  9.63777e-03
       H  1.51730e-02 -1.16387e-02 -4.59035e-03
       H -2.51151e-03  1.85077e-02 -5.25124e-03
       O  1.14264e-02  6.79124e-03  1.03628e-02
       H -1.47224e-02  1.17888e-02 -4.47193e-03
       H  3.47304e-03 -1.85006e-02 -5.26377e-03
       O -1.17069e-03 -1.41348e-02  9.27297e-03
       H  3.11247e-04 -3.30862e-03 -1.92359e-02
       H  6.26851e-04  1.67369e-02  9.86598e-03
       O -1.20591e-02  7.41403e-03 -9.29964e-03
       H -2.78742e-03 -1.90352e-02  4.66713e-03
       H  1.47677e-02  1.18530e-02  4.91265e-03
       O -1.17725e-02 -7.59807e-03  9.70605e-03
       H  1.47948e-02 -1.18775e-02 -4.48859e-03
       H -3.66037e-03  1.86715e-02 -4.65289e-03
       O  1.16790e-02 -7.51479e-03 -1.06422e-02
       H  3.22239e-03 -1.40653e-03  1.91448e-02
       H -1.48990e-02  8.71703e-03 -9.21436e-03
       O  1.25424e-02  6.09793e-03  9.07036e-03
       H  2.92537e-03  1.75853e-03 -1.91673e-02
       H -1.49008e-02 -8.05267e-03  9.98378e-03
       O  1.32564e-02 -7.17538e-03  8.97341e-03
       H  2.54147e-03 -1.56944e-03 -1.91827e-02
       H -1.45354e-02  8.36153e-03  1.00857e-02
       O  1.11344e-02  7.53337e-03 -1.04537e-02
       H  3.36613e-03  1.27793e-03  1.91678e-02
       H -1.48092e-02 -8.74394e-03 -9.35120e-03
       O -1.08627e-02  7.64854e-03  1.03389e-02
       H -3.32994e-03 -1.86252e-02 -4.65903e-03
       H  1.45569e-02  1.16893e-02 -5.13584e-03
       O -1.27519e-02 -7.22050e-03 -8.98831e-03
       H  1.47042e-02 -1.18294e-02  4.40032e-03
       H -2.78733e-03  1.88315e-02  4.67829e-03
       O  1.28389e-02  5.87144e-03 -1.02657e-02
       H -1.46160e-02  1.21321e-02  4.61148e-03
       H  2.70196e-03 -1.86244e-02  5.42748e-03
       O  7.72880e-05  1.44121e-02  8.81736e-03
       H -1.78543e-02 -6.75937e-03 -4.54398e-03
       H  1.77541e-02 -6.68019e-03 -4.48252e-03
       O -1.10128e-02 -7.87271e-03 -1.02639e-02
       H -3.52780e-03 -1.28374e-03  1.92451e-02
       H  1.45689e-02  8.70208e-03 -9.59647e-03
       O  1.61862e-04 -1.31373e-02  1.06007e-02
       H  6.65159e-05 -3.93218e-03 -1.90886e-02
       H -8.27564e-05  1.70146e-02  9.50762e-03
       O  7.43854e-04  1.38672e-02  1.07549e-02
       H -3.41107e-04  3.39822e-03 -1.91647e-02
       H -1.43269e-04 -1.73028e-02  9.11678e-03
       O -1.07456e-02  7.66698e-03 -1.00200e-02
       H -3.50889e-03  1.32493e-03  1.92145e-02
       H  1.46231e-02 -8.58659e-03 -9.63440e-03
       O  1.18167e-02 -7.04664e-03 -1.13262e-02
       H  3.29882e-03 -1.68036e-03  1.90373e-02
       H -1.49304e-02  8.58315e-03 -8.97698e-03
       O  1.28130e-02 -7.08831e-03 -9.13382e-03
       H -1.48587e-02 -1.19570e-02  4.44855e-03
       H  2.81821e-03  1.87404e-02  4.69635e-03
288
# CELL(abcABC):   25.55133    29.50414    27.81677    90.00000    90.00000    90.00000  Step:           1  Bead:       0 forces{atomic_unit}  cell{atomic_unit}
       O -3.77945e-03  3.41789e-03 -3.66095e-03
       H  3.75131e-03 -2.44608e-03 -7.84876e-04
       H  7.88643e-04 -9.24562e-04  4.42727e-03
       O -4.08970e-03  2.22311e-03 -3.47079e-03
       H  4.98681e-04 -3.97907e-03  2.08076e-03
       H  4.27270e-03  8.95112e-04  2.14542e-03
       O  4.15255e-03  2.68029e-03  3.03321e-03
       H -4.38065e-03 -2.75103e-03  1.07038e-05
       H -3.02207e-04 -2.51421e-04 -4.58512e-03
       O  4.48493e-03 -2.56772e-03 -3.05700e-03
       H -4.31832e-03  2.66195e-03  1.23481e-06
       H -2.72733e-04  6.06764e-05  4.45312e-03
       O -5.11158e-03  1.49690e-03 -3.30728e-03
       H  4.51222e-03 -1.94235e-03 -5.18176e-04
       H  5.88587e-04 -1.79101e-04  4.64699e-03
       O -3.52828e-05  5.09216e-03  3.11092e-03
       H -6.45172e-05 -5.01404e-03 -1.21614e-04
       H  1.20889e-04 -2.16742e-04 -4.42520e-03
       O -2.34057e-04 -5.25729e-03  3.65911e-03
       H  1.52032e-04  4.61161e-03  9.20258e-04
       H  3.65953e-06  6.87881e-04 -4.70620e-03
       O -3.38713e-06 -4.31126e-03  4.42616e-03
       H -3.23499e-03  2.70137e-03 -2.28745e-03
       H  3.32158e-03  2.62366e-03 -2.18617e-03
       O -1.73111e-04  5.16191e-03  3.79815e-03
       H -3.41736e-03 -2.42362e-03 -1.51397e-03
       H  3.08601e-03 -2.78181e-03 -2.34275e-03
       O  4.31265e-03 -2.18109e-03  3.29768e-03
       H -3.88194e-03  2.67292e-03  5.91922e-04
       H -1.25195e-03  3.40560e-05 -4.72455e-03
       O -1.71225e-04 -5.31144e-03  3.64401e-03
       H  1.19090e-04  4.52784e-03  7.05795e-04
       H  5.35967e-05  7.27955e-04 -4.41599e-03
       O -1.08303e-05 -5.20780e-03  3.19703e-03
       H -3.25631e-03  2.47115e-03 -2.05560e-03
       H  3.09551e-03  3.26617e-03 -1.62478e-03
       O  7.08123e-04 -5.03231e-03 -3.69248e-03
       H -6.14860e-05  4.51265e-03 -1.13141e-03
       H -4.46900e-04  1.11639e-03  4.83014e-03
       O  4.42963e-03  2.94723e-03 -3.10370e-03
       H -1.27317e-03 -4.16752e-03  2.19930e-03
       H -3.82402e-03  1.78581e-03  1.47849e-03
       O -3.74395e-03 -2.18201e-03 -4.37424e-03
       H  6.73208e-04  4.45354e-03  2.20839e-03
       H  4.03781e-03 -1.66236e-03  2.17751e-03
       O -3.53572e-04  4.58835e-03 -3.62875e-03
       H  6.52963e-05 -4.31778e-03 -1.24402e-03
       H  1.59945e-04 -1.83025e-03  4.89562e-03
       O -4.63482e-03 -2.32970e-03  3.23757e-03
       H  3.24058e-04  4.31974e-03 -1.38764e-03
       H  4.36371e-03 -9.47947e-04 -2.18757e-03
       O -4.14819e-03  2.22420e-03 -3.56904e-03
       H  5.02528e-04 -4.28745e-03  2.01096e-03
       H  4.45681e-03  1.10268e-03  2.12091e-03
       O  4.54997e-03 -2.38772e-03 -3.82330e-03
       H -3.94621e-03 -1.30065e-03  2.38214e-03
       H -3.80645e-04  4.18073e-03  1.43661e-03
       O  4.09403e-03 -3.61048e-03 -3.48997e-03
       H -4.03862e-03  2.87908e-03 -5.94751e-04
       H -2.40400e-04  2.81786e-04  4.62175e-03
       O -1.52509e-05  5.22097e-03  3.23225e-03
       H -3.38114e-03 -2.58854e-03 -2.06168e-03
       H  3.27509e-03 -3.15976e-03 -1.64154e-03
       O -4.20131e-03 -2.41753e-03  3.35733e-03
       H  3.88824e-03  2.49303e-03  5.73170e-04
       H  1.18398e-03  2.11691e-04 -4.61086e-03
       O -8.21572e-04 -5.16270e-03  3.44174e-03
       H  3.69990e-04  4.88771e-03  4.27161e-04
       H -6.92889e-05  5.18997e-04 -4.56316e-03
       O -5.75919e-06 -5.23608e-03  3.09845e-03
       H -2.94858e-03  3.16733e-03 -1.49780e-03
       H  2.95539e-03  2.47707e-03 -2.06037e-03
       O  1.07260e-04 -5.10238e-03 -3.05821e-03
       H -2.77543e-05  5.09216e-03 -1.49235e-04
       H -1.11677e-04  2.92620e-04  4.58847e-03
       O -4.15845e-03 -2.46546e-03  3.43941e-03
       H  3.89065e-03  2.85725e-03  7.50244e-04
       H  1.02763e-03  1.29815e-04 -4.82877e-03
       O  3.84270e-03 -2.44545e-03 -3.72769e-03
       H -4.00202e-03 -1.75670e-03  2.07008e-03
       H -1.19446e-03  4.45255e-03  2.28161e-03
       O  4.23094e-03  2.14869e-03  3.40661e-03
       H -5.15151e-04 -4.30544e-03 -2.03904e-03
       H -4.49875e-03  1.07255e-03 -2.10015e-03
       O -6.77931e-04 -5.13730e-03 -3.36149e-03
       H  4.17457e-04  4.84073e-03 -3.91204e-04
       H  1.10235e-05  5.69286e-04  4.59433e-03
       O -3.76671e-04 -5.12362e-03 -3.22509e-03
       H -3.18004e-03  2.36713e-03  1.45569e-03
       H  2.66222e-03  3.21656e-03  2.13563e-03
       O  3.11695e-04  5.18714e-03 -3.17142e-03
       H -3.10060e-03 -3.39931e-03  2.17128e-03
       H  3.62784e-03 -2.30872e-03  1.49995e-03
       O -4.05037e-03 -2.09245e-03 -3.56133e-03
       H  3.79354e-03  2.04395e-03 -1.02122e-03
       H  1.53724e-03  8.99199e-04  4.57949e-03
       O -4.62115e-03 -2.34509e-03  3.15030e-03
       H  3.86074e-04  4.17390e-03 -1.56311e-03
       H  4.26765e-03 -9.44277e-04 -2.12691e-03
       O -3.79499e-03  2.23696e-03 -4.41611e-03
       H  6.29594e-04 -4.26712e-03  2.16557e-03
       H  4.00191e-03  1.59874e-03  2.23182e-03
       O  4.89224e-03  1.99032e-03  3.39635e-03
       H -4.46694e-03 -1.96978e-03  4.24196e-04
       H -5.69152e-04 -2.65157e-04 -4.58233e-03
       O  4.16015e-03 -2.50036e-03 -3.47209e-03
       H -4.28146e-03  1.97071e-03 -7.04001e-04
       H -5.92947e-04  8.29322e-04  4.80131e-03
       O  3.74053e-03  3.40506e-03 -3.62741e-03
       H -3.76055e-03 -2.42779e-03 -1.10119e-03
       H -8.40319e-04 -1.11738e-03  4.82125e-03
       O  3.84779e-03  2.45427e-03 -3.62203e-03
       H -1.20981e-03 -4.26577e-03  2.10434e-03
       H -3.89095e-03  1.52486e-03  2.15714e-03
       O -4.65707e-03 -2.60796e-03 -3.07301e-03
       H  1.13797e-03  4.21091e-03  1.39814e-03
       H  3.78645e-03 -1.40727e-03  2.15051e-03
       O -4.08784e-03 -3.39481e-03 -3.41152e-03
       H  4.03909e-03  2.91388e-03 -5.00371e-04
       H  2.35138e-04  2.98083e-04  4.60224e-03
       O  3.58657e-04  5.33314e-03  2.97989e-03
       H -2.81806e-03 -3.33773e-03 -2.25971e-03
       H  3.43232e-03 -2.36282e-03 -1.35161e-03
       O  1.17133e-04  5.49342e-03  3.68756e-03
       H -9.80790e-05 -4.61979e-03  8.06947e-04
       H -8.59755e-05 -5.21720e-04 -4.52368e-03
       O  1.33397e-03 -4.94281e-03  3.66097e-03
       H -2.27538e-04  4.50183e-03  1.04976e-03
       H -4.16897e-04  1.24353e-03 -4.74652e-03
       O  1.27745e-04 -4.62270e-03  3.58116e-03
       H -2.87799e-03  3.24709e-03 -2.19316e-03
       H  3.23726e-03  2.50298e-03 -2.07582e-03
       O -2.01467e-04  4.94478e-03  4.09233e-03
       H -3.42483e-03 -2.47588e-03 -1.57688e-03
       H  3.19716e-03 -2.48726e-03 -2.40737e-03
       O -4.95119e-03 -1.63333e-03  3.65268e-03
       H  3.93905e-03  2.18610e-03  1.20265e-03
       H  1.13759e-03  1.83432e-04 -4.82113e-03
       O  4.49844e-03 -2.57645e-03 -3.14201e-03
       H -4.39112e-03 -1.35305e-03  1.56112e-03
       H -5.80912e-04  4.25958e-03  2.15857e-03
       O  4.01245e-03  2.54611e-03  3.59363e-03
       H -1.40890e-03 -4.23423e-03 -2.15270e-03
       H -3.72184e-03  1.68326e-03 -1.95578e-03
       O  4.71429e-03 -2.33337e-03  3.09023e-03
       H -4.26231e-03 -7.32507e-04 -2.27290e-03
       H -3.70916e-04  4.15473e-03 -1.22796e-03
       O  4.72543e-03 -2.66660e-03  3.87722e-03
       H -4.04429e-03  2.25339e-03  9.22578e-04
       H -4.62580e-04  1.55206e-04 -4.65061e-03
       O -4.67412e-03 -2.27739e-03 -3.15329e-03
       H  4.31713e-04  3.94705e-03  1.37362e-03
       H  4.12442e-03 -7.20651e-04  2.25569e-03
       O -3.83191e-03  2.17044e-03  4.42020e-03
       H  7.22390e-04 -4.27967e-03 -2.13632e-03
       H  4.00934e-03  1.55805e-03 -2.14588e-03
       O  4.47869e-03 -2.98876e-03  3.07669e-03
       H -3.73436e-03 -1.87203e-03 -1.32084e-03
       H -1.54257e-03  4.18851e-03 -2.32606e-03
       O  1.90134e-04 -4.77890e-03 -3.54424e-03
       H -3.25947e-03  3.37093e-03  2.13003e-03
       H  3.51355e-03  2.51846e-03  2.10607e-03
       O -3.89322e-04  5.20659e-03 -3.13470e-03
       H -3.38687e-03 -2.31136e-03  1.20606e-03
       H  2.77127e-03 -3.41844e-03  2.20159e-03
       O  9.70231e-04  5.12649e-03 -3.75472e-03
       H -5.98522e-05 -4.55137e-03 -1.06396e-03
       H -3.95606e-04 -1.00785e-03  4.73216e-03
       O  4.42098e-03 -2.89449e-03  3.15683e-03
       H -3.82987e-03 -1.96551e-03 -1.56223e-03
       H -1.38020e-03  4.35394e-03 -2.14525e-03
       O -1.22193e-05  4.80718e-03  3.30071e-03
       H  1.95292e-04 -4.66952e-03  5.81299e-04
       H -4.96409e-04 -1.11402e-03 -4.63527e-03
       O -4.09739e-03  3.18414e-03  3.39300e-03
       H  4.04496e-03 -2.91288e-03  4.64244e-04
       H  4.83956e-04 -2.89473e-04 -4.67995e-03
       O -4.28180e-03  2.86455e-03  3.26464e-03
       H  1.32386e-03 -4.10982e-03 -2.08992e-03
       H  3.77503e-03  1.72167e-03 -1.57181e-03
       O  4.22372e-03  2.37734e-03 -3.43947e-03
       H -3.80224e-03 -2.62430e-03 -5.19343e-04
       H -9.76908e-04 -1.30672e-04  4.65095e-03
       O  5.93277e-05 -5.23632e-03 -3.08261e-03
       H -3.11983e-03  3.04717e-03  1.31588e-03
       H  3.05290e-03  2.60574e-03  2.20041e-03
       O -1.36845e-04  4.73980e-03 -3.54942e-03
       H -3.26557e-03 -2.57715e-03  2.18057e-03
       H  3.08784e-03 -3.02227e-03  2.17928e-03
       O -4.78623e-03 -1.47890e-03 -3.66243e-03
       H  3.96054e-03  2.03278e-03 -1.05600e-03
       H  1.33213e-03  2.12239e-04  4.82009e-03
       O  4.77030e-03  2.09188e-03 -3.44621e-03
       H -4.52151e-03 -2.00129e-03 -3.70890e-04
       H -3.95951e-04 -2.67774e-04  4.55300e-03
       O  4.25591e-03 -2.51464e-03  3.45565e-03
       H -4.17307e-03  1.92182e-03  5.65166e-04
       H -6.19934e-04  8.48171e-04 -4.59755e-03
       O -3.83246e-03  3.54033e-03  3.37294e-03
       H  3.78203e-03 -3.03382e-03  2.07951e-04
       H  3.06769e-04 -3.09485e-04 -4.26636e-03
       O -3.89053e-03  2.26792e-03  4.21079e-03
       H  5.66217e-04 -4.15212e-03 -2.17066e-03
       H  3.96464e-03  1.45195e-03 -2.28730e-03
       O -4.37595e-03 -2.66658e-03  3.82112e-03
       H  6.56380e-04  4.12888e-03 -2.41047e-03
       H  3.93535e-03 -1.83049e-03 -1.52329e-03
       O -2.00711e-04  4.60955e-03  3.59135e-03
       H  1.33718e-04 -4.34326e-03  1.27750e-03
       H  1.79864e-04 -1.84918e-03 -4.85502e-03
       O  3.84117e-03  3.22438e-03  3.57302e-03
       H -3.75087e-03 -2.12897e-03  8.46665e-04
       H -8.54251e-04 -1.04137e-03 -4.49512e-03
       O  4.23022e-03  2.86674e-03  3.32846e-03
       H -1.30204e-03 -4.16300e-03 -2.10905e-03
       H -3.79713e-03  1.70103e-03 -1.58081e-03
       O -4.16585e-03  3.18438e-03 -3.43625e-03
       H  4.03717e-03 -2.90549e-03 -5.25588e-04
       H  2.95607e-04 -1.44543e-04  4.66921e-03
       O -4.22122e-03  2.18307e-03 -3.40703e-03
       H  4.56951e-04 -4.13081e-03  1.97979e-03
       H  4.41378e-03  9.21205e-04  2.21293e-03
       O  2.22025e-04  4.74871e-03 -3.46774e-03
       H -3.24964e-03 -3.26036e-03  2.12218e-03
       H  3.49692e-03 -2.66629e-03  2.04669e-03
       O  4.02513e-03 -2.42510e-03 -3.75188e-03
       H -3.76337e-03  2.18526e-03 -1.23866e-03
       H -1.40594e-03  7.82591e-04  4.83276e-03
       O  3.81663e-03  3.18678e-03 -3.58026e-03
       H -3.87111e-03 -2.15430e-03 -1.05047e-03
       H -9.45405e-04 -9.52180e-04  4.69235e-03
       O  4.23006e-03  2.51232e-03 -4.04427e-03
       H -8.12270e-04 -3.77608e-03  2.36351e-03
       H -3.68493e-03  1.52740e-03  1.45845e-03
       O -4.63943e-03 -2.70176e-03 -2.91680e-03
       H  5.06924e-04  4.11555e-03  2.22098e-03
       H  4.46905e-03 -1.24502e-03  1.46758e-03
       O -1.13101e-03  4.89007e-03 -3.71453e-03
       H  1.94607e-04 -4.49722e-03 -1.04506e-03
       H  6.01126e-04 -1.23690e-03  4.74482e-03
       O  4.30122e-03 -2.37878e-03  4.12248e-03
       H -3.82775e-03 -1.48570e-03 -2.17435e-03
       H -5.48513e-04  4.23223e-03 -1.74288e-03
       O  4.17638e-03  2.18697e-03 -3.56639e-03
       H -3.83757e-04 -4.25804e-03  2.09673e-03
       H -4.64322e-03  1.10836e-03  2.15040e-03
       O -4.79411e-03  1.93971e-03  3.29550e-03
       H  4.36155e-03 -2.06308e-03  2.23045e-04
       H  4.63466e-04 -1.94724e-04 -4.32634e-03
       O -3.91774e-03 -3.28811e-03 -3.70270e-03
       H  3.91590e-03  2.28434e-03 -1.12882e-03
       H  7.16167e-04  9.27019e-04  4.81585e-03
       O -3.84040e-03  2.54531e-03 -3.59176e-03
       H  3.66444e-03 -2.19295e-03 -1.20757e-03
       H  1.62445e-03 -9.24455e-04  4.82923e-03
       O -4.96705e-03 -1.85309e-03  3.44788e-03
       H  4.41112e-03  1.90968e-03  2.94023e-04
       H  3.75562e-04  6.09268e-05 -4.46584e-03
       O  4.86731e-03 -2.40443e-03 -3.00653e-03
       H -4.31980e-03 -9.64605e-04  2.23360e-03
       H -2.74873e-04  4.23171e-03  1.39860e-03
       O  3.69466e-03  2.15729e-03  4.41171e-03
       H -8.02213e-04 -4.13583e-03 -2.30874e-03
       H -3.86628e-03  1.57854e-03 -2.05867e-03
       O -4.26739e-03 -2.92817e-03  3.25719e-03
       H  1.49229e-03  4.13703e-03 -2.40079e-03
       H  3.78704e-03 -1.79684e-03 -1.24590e-03
       O -5.51232e-05 -4.36642e-03 -4.39002e-03
       H -3.37481e-03  2.74480e-03  2.14670e-03
       H  3.40475e-03  2.75468e-03  2.15328e-03
       O  5.01892e-03  1.55552e-03  3.35553e-03
       H -4.51604e-03 -1.92184e-03  4.93791e-04
       H -5.71215e-04 -1.17079e-04 -4.64367e-03
       O  1.03618e-04  5.10995e-03 -3.20478e-03
       H  6.54799e-05 -5.07895e-03 -1.56136e-04
       H -6.71264e-05 -2.71167e-04  4.62417e-03
       O  8.27299e-04 -5.16999e-03 -3.33098e-03
       H -3.33937e-04  4.74790e-03 -1.59789e-04
       H -9.81441e-05  4.68589e-04  4.24841e-03
       O  5.05679e-03 -1.59062e-03  3.48166e-03
       H -4.43394e-03  1.92644e-03  5.71485e-04
       H -3.68835e-04  1.64698e-04 -4.67635e-03
       O -4.37635e-03  2.43004e-03  3.07554e-03
       H  4.47470e-03 -2.41027e-03 -2.75521e-04
       H  2.64119e-04 -1.77986e-04 -4.23043e-03
       O -3.89836e-03  2.12162e-03  4.34363e-03
       H  8.59081e-04 -4.15325e-03 -2.33096e-03
       H  3.89170e-03  1.57797e-03 -2.03332e-03
288
# CELL(abcABC):   25.55133    29.50414    27.81677    90.00000    90.00000    90.00000  Step:           2  Bead:       0 forces{atomic_unit}  cell{atomic_unit}
       O -2.36037e-03  2.34253e-03 -2.34235e-03
       H  2.85299e-03 -1.85473e-03 -1.20942e-03
       H  1.33347e-04 -4.28768e-04  3.54309e-03
       O -2.71635e-03  1.39252e-03 -2.21541e-03
       H -3.47561e-05 -3.25855e-03  1.40654e-03
       H  3.28214e-03  1.18223e-03  1.43975e-03
       O  2.72275e-03  1.84633e-03  1.95864e-03
       H -3.37317e-03 -2.13044e-03  4.58097e-04
       H  2.18188e-04  3.99980e-05 -3.66874e-03
       O  2.98707e-03 -1.71149e-03 -1.92718e-03
       H -3.31592e-03  2.05964e-03 -5.08274e-04
       H  3.08612e-04 -2.60797e-04  3.55815e-03
       O -3.41783e-03  7.90567e-04 -2.18067e-03
       H  3.44575e-03 -1.48557e-03 -8.71353e-04
       H -3.47232e-05  1.47363e-04  3.72608e-03
       O -2.63049e-05  3.45563e-03  1.94255e-03
       H -5.30373e-05 -3.85776e-03  4.51024e-04
       H  1.04619e-04  3.69488e-04 -3.52615e-03
       O -2.28713e-04 -3.40243e-03  2.38575e-03
       H  1.16503e-04  3.48607e-03  1.25725e-03
       H  2.64311e-05 -4.26906e-05 -3.76910e-03
       O  5.06946e-05 -2.76960e-03  2.97678e-03
       H -2.91842e-03  1.80486e-03 -1.54375e-03
       H  2.96444e-03  1.75831e-03 -1.45569e-03
       O -2.34173e-04  3.33443e-03  2.48199e-03
       H -3.07087e-03 -1.54159e-03 -9.32407e-04
       H  2.88160e-03 -1.80506e-03 -1.59081e-03
       O  2.82668e-03 -1.35432e-03  2.21699e-03
       H -2.95044e-03  2.05974e-03  9.06249e-04
       H -5.35667e-04 -2.69383e-04 -3.81060e-03
       O -1.58164e-04 -3.40791e-03  2.30984e-03
       H  9.81664e-05  3.42917e-03  1.14134e-03
       H  4.92977e-05 -5.49989e-05 -3.54073e-03
       O -1.59537e-04 -3.39387e-03  2.09272e-03
       H -2.91053e-03  1.60116e-03 -1.40084e-03
       H  2.86122e-03  2.21746e-03 -1.03372e-03
       O  4.94705e-04 -3.29233e-03 -2.51787e-03
       H -4.69495e-05  3.41917e-03 -1.39241e-03