288
# CELL(abcABC):   25.55133    29.50414    27.81677    90.00000    90.00000    90.00000  Step:           0  Bead:       0 forces{atomic_unit}  cell{atomic_unit}
       O  1.24637e-02 -7.11422e-03  9.92440e-03
       H  2.97635e-03 -1.46643e-03 -1.90569e-02
       H -1.48713e-02  8.23945e-03  9.68340e-03
       O  1.24039e-02  7.14313e-03 -9.93281e-03
       H  2.75920e-03  1.82715e-03  1.90993e-02
       H -1.46005e-02 -8.68013e-03 -9.70598e-03
       O  1.18707e-02  6.59564e-03  1.00520e-02
       H -1.44693e-02  1.21907e-02 -5.19242e-03
       H  2.88782e-03 -1.87183e-02 -4.58109e-03
       O  2.00213e-04  1.36666e-02 -1.00699e-02
       H -1.76954e-02 -6.49891e-03  5.21084e-03
       H  1.76604e-02 -7.01839e-03  4.62827e-03
       O -1.54170e-05  1.42352e-02  1.00123e-02
       H -1.47191e-04  3.30810e-03 -1.90583e-02
       H  2.27501e-04 -1.69425e-02  9.65075e-03
       O -1.24903e-02  7.08001e-03 -9.90346e-03
       H -2.97372e-03  1.47945e-03  1.90549e-02
       H  1.48832e-02 -8.15728e-03 -9.70387e-03
       O -1.18069e-02  7.07969e-03  1.00746e-02
       H -3.22388e-03 -1.86458e-02 -5.19878e-03
       H  1.48995e-02  1.17534e-02 -4.65701e-03
       O -1.18774e-02 -6.68895e-03 -1.00132e-02
       H  1.44509e-02 -1.21517e-02  5.19544e-03
       H -2.89116e-03  1.87398e-02  4.54926e-03
       O  1.17059e-02  7.11856e-03 -9.29171e-03
       H -1.47239e-02  1.20242e-02  4.87460e-03
       H  2.89394e-03 -1.88464e-02  4.40582e-03
       O  1.24979e-02  7.39042e-03 -1.02365e-02
       H  2.66380e-03  1.85865e-03  1.89952e-02
       H -1.46394e-02 -8.87183e-03 -9.53574e-03
       O  1.32249e-02 -7.47246e-03 -9.27776e-03
       H  2.51511e-03 -1.52970e-03  1.90812e-02
       H -1.47378e-02  8.45893e-03 -9.83883e-03
       O  3.41159e-04  1.35454e-02 -1.01849e-02
       H -1.78117e-02 -6.37721e-03  5.17147e-03
       H  1.76261e-02 -7.01942e-03  4.52355e-03
       O -8.53282e-05  1.50978e-02  9.02099e-03
       H  1.15239e-04  2.98206e-03 -1.91245e-02
       H  3.62751e-05 -1.68357e-02  9.99402e-03
       O -1.17503e-02 -7.15104e-03  9.33497e-03
       H  1.47812e-02 -1.20084e-02 -4.92619e-03
       H -2.88121e-03  1.88095e-02 -4.44965e-03
       O -1.21980e-02  6.63904e-03  9.14582e-03
       H -2.97052e-03 -1.88216e-02 -4.95258e-03
       H  1.47709e-02  1.19863e-02 -4.50233e-03
       O -1.32333e-02  7.40247e-03  9.28757e-03
       H -2.49694e-03  1.54645e-03 -1.90879e-02
       H  1.47292e-02 -8.38510e-03  9.84931e-03
       O -2.79408e-04 -1.35654e-02 -1.01874e-02
       H -1.76570e-02  6.99230e-03  4.52744e-03
       H  1.78512e-02  6.42052e-03  5.16225e-03
       O -1.32949e-02  7.41075e-03 -9.29357e-03
       H -2.49443e-03  1.54863e-03  1.90994e-02
       H  1.47542e-02 -8.38503e-03 -9.84079e-03
       O -1.24740e-02 -7.39946e-03 -1.02542e-02
       H -2.69715e-03 -1.83114e-03  1.89647e-02
       H  1.46223e-02  8.89787e-03 -9.52920e-03
       O -1.16913e-02 -7.17759e-03 -9.31430e-03
       H  1.47275e-02 -1.19743e-02  4.87616e-03
       H -2.89512e-03  1.88129e-02  4.42386e-03
       O  1.18772e-02  6.61823e-03 -1.00163e-02
       H -1.44662e-02  1.21930e-02  5.20124e-03
       H  2.90297e-03 -1.87517e-02  4.56487e-03
       O  1.17559e-02 -7.02723e-03  1.01109e-02
       H -1.48748e-02 -1.17756e-02 -4.66968e-03
       H  3.20631e-03  1.86030e-02 -5.21261e-03
       O  1.24323e-02 -7.14076e-03 -9.89266e-03
       H  2.96832e-03 -1.44350e-03  1.90515e-02
       H -1.48487e-02  8.23450e-03 -9.70448e-03
       O  9.85141e-06 -1.42297e-02  9.98590e-03
       H  1.72968e-04 -3.32362e-03 -1.90617e-02
       H -2.03384e-04  1.69423e-02  9.63338e-03
       O -1.29411e-04 -1.36872e-02 -1.00846e-02
       H -1.76830e-02  6.97586e-03  4.64020e-03
       H  1.76965e-02  6.50509e-03  5.22561e-03
       O -1.18578e-02 -6.65528e-03  1.00122e-02
       H  1.44625e-02 -1.21425e-02 -5.18816e-03
       H -2.87295e-03  1.87286e-02 -4.56765e-03
       O -1.23771e-02 -7.17488e-03 -9.94177e-03
       H -2.80083e-03 -1.79445e-03  1.90735e-02
       H  1.45540e-02  8.70039e-03 -9.69431e-03
       O -1.24702e-02  7.08545e-03  9.92121e-03
       H -2.96692e-03  1.47283e-03 -1.90515e-02
       H  1.48997e-02 -8.18608e-03  9.69094e-03
       O  1.32273e-02 -7.45608e-03  9.28675e-03
       H  2.50070e-03 -1.52839e-03 -1.90924e-02
       H -1.47246e-02  8.42542e-03  9.84450e-03
       O  1.21742e-02 -6.57249e-03  9.21849e-03
       H -1.47640e-02 -1.20117e-02 -4.51872e-03
       H  2.94521e-03  1.87573e-02 -4.96156e-03
       O  1.17459e-02  7.12079e-03  9.35806e-03
       H -1.47718e-02  1.20479e-02 -4.93638e-03
       H  2.89302e-03 -1.88365e-02 -4.45026e-03
       O  4.74494e-05 -1.50499e-02  8.98161e-03
       H -9.43269e-05 -3.00011e-03 -1.91254e-02
       H -1.06847e-05  1.68493e-02  9.98054e-03
       O -1.22433e-02  6.58147e-03 -9.20106e-03
       H -2.90749e-03 -1.87595e-02  4.94784e-03
       H  1.48739e-02  1.19309e-02  4.56887e-03
       O  5.62898e-05 -1.42984e-02 -9.92609e-03
       H  2.10067e-04 -3.29637e-03  1.90166e-02
       H -3.24746e-04  1.69454e-02 -9.67676e-03
       O -3.65275e-05  1.50085e-02 -8.99959e-03
       H  1.58028e-04  3.01196e-03  1.91443e-02
       H -2.78019e-05 -1.68299e-02 -1.00015e-02
       O  1.16902e-02 -7.03225e-03 -1.00540e-02
       H -1.47906e-02 -1.18516e-02  4.60050e-03
       H  3.29314e-03  1.86032e-02  5.21453e-03
       O -1.23280e-02 -7.13371e-03  9.98776e-03
       H -2.79014e-03 -1.81563e-03 -1.90534e-02
       H  1.46031e-02  8.69697e-03  9.66047e-03
       O  2.96469e-04  1.37610e-02  1.01021e-02
       H -1.77331e-02 -6.53154e-03 -5.21490e-03
       H  1.75797e-02 -7.02496e-03 -4.67920e-03
       O -1.88342e-04 -1.37117e-02  1.00843e-02
       H -1.76469e-02  6.99669e-03 -4.67975e-03
       H  1.77284e-02  6.52317e-03 -5.20188e-03
       O  1.23698e-02  7.10157e-03  9.98047e-03
       H  2.76116e-03  1.79035e-03 -1.90447e-02
       H -1.46062e-02 -8.67102e-03  9.65809e-03
       O -1.17317e-02  7.01873e-03 -1.00126e-02
       H -3.33200e-03 -1.86135e-02  5.20328e-03
       H  1.48205e-02  1.18662e-02  4.59148e-03
       O -2.00616e-05 -1.49849e-02 -9.03082e-03
       H -1.56008e-04 -2.99222e-03  1.91779e-02
       H  7.21453e-05  1.68384e-02 -9.99439e-03
       O -9.56370e-05  1.43012e-02 -9.92368e-03
       H -2.00970e-04  3.31539e-03  1.89950e-02
       H  3.46718e-04 -1.69393e-02 -9.67849e-03
       O  1.22407e-02 -6.62116e-03 -9.23440e-03
       H -1.48497e-02 -1.18988e-02  4.58131e-03
       H  2.87915e-03  1.87099e-02  4.96004e-03
       O -1.24651e-02 -7.40358e-03  1.02327e-02
       H -2.66778e-03 -1.85255e-03 -1.90278e-02
       H  1.46230e-02  8.87819e-03  9.55959e-03
       O  3.16672e-04  1.35489e-02  1.02279e-02
       H -1.78127e-02 -6.40160e-03 -5.16084e-03
       H  1.76290e-02 -7.02056e-03 -4.53717e-03
       O -2.53785e-04 -1.35040e-02  1.01975e-02
       H -1.76636e-02  6.98280e-03 -4.53536e-03
       H  1.78059e-02  6.40386e-03 -5.13775e-03
       O  1.25185e-02  7.39865e-03  1.02153e-02
       H  2.63392e-03  1.82185e-03 -1.90243e-02
       H -1.46561e-02 -8.86580e-03  9.54080e-03
       O  1.24641e-02 -7.11444e-03  9.92435e-03
       H  2.97629e-03 -1.46636e-03 -1.90583e-02
       H -1.48718e-02  8.23973e-03  9.68333e-03
       O  1.24036e-02  7.14299e-03 -9.93298e-03
       H  2.75921e-03  1.82716e-03  1.90995e-02
       H -1.46003e-02 -8.68002e-03 -9.70582e-03
       O  1.18706e-02  6.59556e-03  1.00505e-02
       H -1.44690e-02  1.21905e-02 -5.19232e-03
       H  2.88781e-03 -1.87180e-02 -4.58101e-03
       O  2.00302e-04  1.36666e-02 -1.00701e-02
       H -1.76956e-02 -6.49896e-03  5.21093e-03
       H  1.76604e-02 -7.01839e-03  4.62829e-03
       O -1.54518e-05  1.42351e-02  1.00124e-02
       H -1.47179e-04  3.30812e-03 -1.90583e-02
       H  2.27525e-04 -1.69423e-02  9.65072e-03
       O -1.24903e-02  7.07997e-03 -9.90348e-03
       H -2.97371e-03  1.47946e-03  1.90549e-02
       H  1.48832e-02 -8.15725e-03 -9.70385e-03
       O -1.18069e-02  7.07972e-03  1.00745e-02
       H -3.22389e-03 -1.86458e-02 -5.19876e-03
       H  1.48995e-02  1.17534e-02 -4.65701e-03
       O -1.18774e-02 -6.68895e-03 -1.00132e-02
       H  1.44509e-02 -1.21517e-02  5.19544e-03
       H -2.89116e-03  1.87398e-02  4.54926e-03
       O  1.17059e-02  7.11856e-03 -9.29172e-03
       H -1.47239e-02  1.20242e-02  4.87460e-03
       H  2.89394e-03 -1.88464e-02  4.40582e-03
       O  1.24979e-02  7.39044e-03 -1.02365e-02
       H  2.66381e-03  1.85865e-03  1.89952e-02
       H -1.46394e-02 -8.87184e-03 -9.53575e-03
       O  1.32249e-02 -7.47246e-03 -9.27775e-03
       H  2.51511e-03 -1.52970e-03  1.90812e-02
       H -1.47378e-02  8.45894e-03 -9.83884e-03
       O  3.41168e-04  1.35454e-02 -1.01849e-02
       H -1.78117e-02 -6.37722e-03  5.17147e-03
       H  1.76261e-02 -7.01942e-03  4.52355e-03
       O -8.54225e-05  1.50979e-02  9.02102e-03
       H  1.15254e-04  2.98203e-03 -1.91246e-02
       H  3.62851e-05 -1.68357e-02  9.99402e-03
       O -1.17503e-02 -7.15078e-03  9.33485e-03
       H  1.47813e-02 -1.20085e-02 -4.92622e-03
       H -2.88116e-03  1.88092e-02 -4.44953e-03
       O -1.21980e-02  6.63902e-03  9.14579e-03
       H -2.97052e-03 -1.88216e-02 -4.95258e-03
       H  1.47709e-02  1.19863e-02 -4.50233e-03
       O -1.32333e-02  7.40236e-03  9.28736e-03
       H -2.49694e-03  1.54641e-03 -1.90878e-02
       H  1.47292e-02 -8.38509e-03  9.84935e-03
       O -2.79533e-04 -1.35654e-02 -1.01874e-02
       H -1.76569e-02  6.99226e-03  4.52742e-03
       H  1.78513e-02  6.42053e-03  5.16226e-03
       O -1.32949e-02  7.41074e-03 -9.29357e-03
       H -2.49443e-03  1.54863e-03  1.90994e-02
       H  1.47542e-02 -8.38502e-03 -9.84078e-03
       O -1.24740e-02 -7.39946e-03 -1.02542e-02
       H -2.69717e-03 -1.83114e-03  1.89648e-02
       H  1.46223e-02  8.89787e-03 -9.52920e-03
       O -1.16913e-02 -7.17759e-03 -9.31430e-03
       H  1.47275e-02 -1.19743e-02  4.87617e-03
       H -2.89512e-03  1.88129e-02  4.42387e-03
       O  1.18773e-02  6.61823e-03 -1.00163e-02
       H -1.44662e-02  1.21930e-02  5.20124e-03
       H  2.90297e-03 -1.87517e-02  4.56487e-03
       O  1.17559e-02 -7.02723e-03  1.01109e-02
       H -1.48748e-02 -1.17755e-02 -4.66967e-03
       H  3.20632e-03  1.86030e-02 -5.21261e-03
       O  1.24323e-02 -7.14076e-03 -9.89264e-03
       H  2.96832e-03 -1.44351e-03  1.90515e-02
       H -1.48487e-02  8.23450e-03 -9.70448e-03
       O  9.85431e-06 -1.42297e-02  9.98590e-03
       H  1.72969e-04 -3.32363e-03 -1.90617e-02
       H -2.03386e-04  1.69423e-02  9.63338e-03
       O -1.29418e-04 -1.36872e-02 -1.00846e-02
       H -1.76830e-02  6.97586e-03  4.64020e-03
       H  1.76965e-02  6.50509e-03  5.22562e-03
       O -1.18578e-02 -6.65528e-03  1.00122e-02
       H  1.44625e-02 -1.21425e-02 -5.18816e-03
       H -2.87295e-03  1.87286e-02 -4.56765e-03
       O -1.23771e-02 -7.17489e-03 -9.94176e-03
       H -2.80084e-03 -1.79445e-03  1.90735e-02
       H  1.45540e-02  8.70040e-03 -9.69432e-03
       O -1.24702e-02  7.08544e-03  9.92121e-03
       H -2.96692e-03  1.47283e-03 -1.90515e-02
       H  1.48997e-02 -8.18608e-03  9.69094e-03
       O  1.32273e-02 -7.45607e-03  9.28675e-03
       H  2.50069e-03 -1.52839e-03 -1.90924e-02
       H -1.47246e-02  8.42542e-03  9.84449e-03
       O  1.21742e-02 -6.57247e-03  9.21847e-03
       H -1.47640e-02 -1.20117e-02 -4.51871e-03
       H  2.94523e-03  1.87573e-02 -4.96155e-03
       O  1.17459e-02  7.12081e-03  9.35806e-03
       H -1.47718e-02  1.20479e-02 -4.93638e-03
       H  2.89302e-03 -1.88365e-02 -4.45026e-03
       O  4.74472e-05 -1.50499e-02  8.98160e-03
       H -9.43202e-05 -3.00011e-03 -1.91254e-02
       H -1.06892e-05  1.68493e-02  9.98054e-03
       O -1.22432e-02  6.58149e-03 -9.20105e-03
       H -2.90751e-03 -1.87595e-02  4.94785e-03
       H  1.48738e-02  1.19309e-02  4.56885e-03
       O  5.64734e-05 -1.42985e-02 -9.92618e-03
       H  2.10054e-04 -3.29637e-03  1.90167e-02
       H -3.24767e-04  1.69455e-02 -9.67679e-03
       O -3.65464e-05  1.50085e-02 -8.99961e-03
       H  1.58047e-04  3.01197e-03  1.91443e-02
       H -2.77978e-05 -1.68299e-02 -1.00015e-02
       O  1.16901e-02 -7.03218e-03 -1.00542e-02
       H -1.47906e-02 -1.18516e-02  4.60053e-03
       H  3.29315e-03  1.86032e-02  5.21455e-03
       O -1.23280e-02 -7.13382e-03  9.98778e-03
       H -2.79015e-03 -1.81560e-03 -1.90534e-02
       H  1.46031e-02  8.69700e-03  9.66047e-03
       O  2.96481e-04  1.37610e-02  1.01021e-02
       H -1.77331e-02 -6.53153e-03 -5.21490e-03
       H  1.75797e-02 -7.02495e-03 -4.67919e-03
       O -1.88361e-04 -1.37117e-02  1.00843e-02
       H -1.76468e-02  6.99668e-03 -4.67974e-03
       H  1.77284e-02  6.52317e-03 -5.20188e-03
       O  1.23698e-02  7.10159e-03  9.98048e-03
       H  2.76116e-03  1.79034e-03 -1.90447e-02
       H -1.46062e-02 -8.67103e-03  9.65808e-03
       O -1.17317e-02  7.01874e-03 -1.00126e-02
       H -3.33200e-03 -1.86135e-02  5.20328e-03
       H  1.48205e-02  1.18662e-02  4.59148e-03
       O -2.00587e-05 -1.49849e-02 -9.03082e-03
       H -1.56008e-04 -2.99222e-03  1.91779e-02
       H  7.21399e-05  1.68384e-02 -9.99438e-03
       O -9.56390e-05  1.43012e-02 -9.92367e-03
       H -2.00968e-04  3.31539e-03  1.89950e-02
       H  3.46717e-04 -1.69393e-02 -9.67849e-03
       O  1.22407e-02 -6.62117e-03 -9.23441e-03
       H -1.48497e-02 -1.18988e-02  4.58131e-03
       H  2.87915e-03  1.87099e-02  4.96005e-03
       O -1.24650e-02 -7.40350e-03  1.02328e-02
       H -2.66780e-03 -1.85258e-03 -1.90278e-02
       H  1.46229e-02  8.87811e-03  9.55956e-03
       O  3.16713e-04  1.35490e-02  1.02279e-02
       H -1.78127e-02 -6.40161e-03 -5.16085e-03
       H  1.76290e-02 -7.02057e-03 -4.53716e-03
       O -2.53786e-04 -1.35040e-02  1.01974e-02
       H -1.76636e-02  6.98280e-03 -4.53535e-03
       H  1.78059e-02  6.40387e-03 -5.13772e-03
       O  1.25185e-02  7.39865e-03  1.02153e-02
       H  2.63392e-03  1.82185e-03 -1.90243e-02
       H -1.46561e-02 -8.86581e-03  9.54080e-03
288
# CELL(abcABC):   25.55133    29.50414    27.81677    90.00000    90.00000    90.00000  Step:           1  Bead:       0 forces{atomic_unit}  cell{atomic_unit}
       O -4.15716e-03  2.47958e-03 -3.27998e-03
       H  4.13684e-03 -2.08291e-03 -6.18787e-04
       H  7.91887e-04 -8.48227e-04  4.68375e-03
       O -4.19458e-03 -2.41807e-03  3.31870e-03
       H  3.86710e-03  2.51810e-03  6.28901e-04
       H  1.08056e-03  3.16841e-04 -4.70767e-03
       O -4.55482e-03 -2.55325e-03 -3.18050e-03
       H  1.09393e-03  4.41483e-03  1.52468e-03
       H  3.88639e-03 -1.67548e-03  2.09892e-03
       O -4.76980e-07 -5.21967e-03  3.22313e-03
       H -3.21457e-03  3.10001e-03 -1.51583e-03
       H  3.34475e-03  2.44404e-03 -2.10933e-03
       O -2.30014e-05 -4.81704e-03 -3.29791e-03
       H -1.93866e-04  4.61743e-03 -5.70720e-04
       H  2.78456e-04  1.04075e-03  4.68937e-03
       O  4.12307e-03 -2.49725e-03  3.27776e-03
       H -4.13163e-03  2.09509e-03  6.35044e-04
       H -7.66901e-04  9.19568e-04 -4.69539e-03
       O  4.48554e-03 -2.62219e-03 -3.24694e-03
       H -4.30364e-03 -1.22456e-03  1.55847e-03
       H -4.71484e-04  4.09252e-03  2.08621e-03
       O  4.50011e-03  2.54473e-03  3.21913e-03
       H -1.06157e-03 -4.40179e-03 -1.50985e-03
       H -3.89533e-03  1.65229e-03 -2.15349e-03
       O -4.39259e-03 -2.30292e-03  3.99663e-03
       H  4.96750e-04  4.36206e-03 -1.68296e-03
       H  3.87240e-03 -1.60559e-03 -2.27737e-03
       O -4.24123e-03 -2.27560e-03  3.19313e-03
       H  3.83780e-03  2.58916e-03  4.43908e-04
       H  1.10879e-03  2.11291e-04 -4.57525e-03
       O -3.95347e-03  2.38417e-03  3.61488e-03
       H  3.72711e-03 -2.18129e-03  9.94011e-04
       H  1.46301e-03 -8.61855e-04 -4.69180e-03
       O  5.02662e-06 -5.25712e-03  3.09624e-03
       H -3.26999e-03  3.20736e-03 -1.57814e-03
       H  3.38441e-03  2.37853e-03 -2.15798e-03
       O -2.84586e-05 -4.56623e-03 -3.65632e-03
       H  7.41295e-05  4.29960e-03 -1.13625e-03
       H  3.68629e-05  1.77062e-03  4.81531e-03
       O  4.41218e-03  2.27627e-03 -3.99229e-03
       H -4.90317e-04 -4.32428e-03  1.65439e-03
       H -3.87654e-03  1.55639e-03  2.25124e-03
       O  4.05906e-03 -2.66776e-03 -4.15186e-03
       H -3.97984e-03 -1.73612e-03  1.61830e-03
       H -6.60159e-04  4.21359e-03  2.18744e-03
       O  3.91350e-03 -2.42149e-03 -3.63446e-03
       H -3.71181e-03  2.20016e-03 -9.81930e-04
       H -1.42885e-03  9.08505e-04  4.70970e-03
       O  1.54575e-05  5.26480e-03  3.11697e-03
       H -3.37911e-03 -2.43161e-03 -2.17267e-03
       H  3.30033e-03 -3.17301e-03 -1.59637e-03
       O  3.89670e-03 -2.43884e-03  3.62539e-03
       H -3.71469e-03  2.20100e-03  9.89205e-04
       H -1.44479e-03  9.34947e-04 -4.68720e-03
       O  4.24847e-03  2.25737e-03  3.17626e-03
       H -3.87221e-03 -2.56174e-03  4.20121e-04
       H -1.11379e-03 -1.77221e-04 -4.57055e-03
       O  4.38777e-03  2.29025e-03  3.97654e-03
       H -4.66780e-04 -4.32882e-03 -1.67772e-03
       H -3.88472e-03  1.55792e-03 -2.27603e-03
       O -4.53126e-03 -2.55435e-03  3.22186e-03
       H  1.08236e-03  4.42208e-03 -1.51470e-03
       H  3.89944e-03 -1.69008e-03 -2.12082e-03
       O -4.51617e-03  2.62976e-03 -3.20173e-03
       H  4.84629e-04 -4.11678e-03  2.07035e-03
       H  4.28484e-03  1.21762e-03  1.52873e-03
       O -4.16891e-03  2.44509e-03  3.27947e-03
       H  4.12341e-03 -2.06001e-03  6.38303e-04
       H  7.97256e-04 -8.43227e-04 -4.69874e-03
       O  2.37386e-05  4.81047e-03 -3.31188e-03
       H  2.20900e-04 -4.62823e-03 -5.86548e-04
       H -2.54657e-04 -1.03987e-03  4.67091e-03
       O  1.10559e-05  5.21769e-03  3.22946e-03
       H -3.33183e-03 -2.51157e-03 -2.11896e-03
       H  3.22463e-03 -3.09316e-03 -1.50141e-03
       O  4.52372e-03  2.56091e-03 -3.21174e-03
       H -1.05091e-03 -4.38896e-03  1.51813e-03
       H -3.87722e-03  1.65387e-03  2.12700e-03
       O  4.19192e-03  2.37639e-03  3.30901e-03
       H -3.90840e-03 -2.48710e-03  6.16457e-04
       H -1.10540e-03 -2.83596e-04 -4.70150e-03
       O  4.14390e-03 -2.49162e-03 -3.27884e-03
       H -4.12128e-03  2.09006e-03 -6.19397e-04
       H -7.52745e-04  8.91852e-04  4.68426e-03
       O -3.93998e-03  2.39216e-03 -3.62884e-03
       H  3.71735e-03 -2.18139e-03 -9.88291e-04
       H  1.45718e-03 -8.82842e-04  4.70679e-03
       O -4.10162e-03  2.65554e-03 -4.08236e-03
       H  6.88422e-04 -4.22732e-03  2.18237e-03
       H  3.95671e-03  1.73252e-03  1.59260e-03
       O -4.42704e-03 -2.28846e-03 -3.97701e-03
       H  5.18161e-04  4.35833e-03  1.64857e-03
       H  3.88188e-03 -1.57923e-03  2.24640e-03
       O  2.83989e-06  4.57811e-03 -3.67175e-03
       H -5.40687e-05 -4.30677e-03 -1.16089e-03
       H -1.25687e-05 -1.74188e-03  4.80108e-03
       O  4.12474e-03 -2.62996e-03  4.13960e-03
       H -3.93442e-03 -1.73980e-03 -1.61260e-03
       H -6.50539e-04  4.13662e-03 -2.17959e-03
       O  4.76424e-05  4.80983e-03  3.26045e-03
       H  2.55576e-04 -4.60797e-03  6.13518e-04
       H -3.62361e-04 -1.09517e-03 -4.69230e-03
       O  5.47281e-06 -4.58763e-03  3.70124e-03
       H  1.11545e-04  4.31345e-03  1.15320e-03
       H -1.61469e-05  1.72699e-03 -4.82819e-03
       O -4.47856e-03  2.63373e-03  3.20126e-03
       H  4.85027e-04 -4.20565e-03 -2.08539e-03
       H  4.35030e-03  1.23246e-03 -1.51583e-03
       O  4.20123e-03  2.39650e-03 -3.29750e-03
       H -3.89360e-03 -2.50677e-03 -5.76440e-04
       H -1.03185e-03 -2.71808e-04  4.68173e-03
       O -3.38256e-05 -5.19177e-03 -3.21945e-03
       H -3.16789e-03  3.13410e-03  1.55284e-03
       H  3.31026e-03  2.43396e-03  2.04659e-03
       O  6.90172e-06  5.21018e-03 -3.23142e-03
       H -3.31391e-03 -2.48442e-03  2.06818e-03
       H  3.22069e-03 -3.09764e-03  1.54085e-03
       O -4.17958e-03 -2.43718e-03 -3.28991e-03
       H  3.87306e-03  2.48445e-03 -5.84784e-04
       H  1.03421e-03  2.97974e-04  4.68935e-03
       O  4.47367e-03 -2.62427e-03  3.24096e-03
       H -4.37899e-03 -1.24450e-03 -1.52353e-03
       H -4.92297e-04  4.19702e-03 -2.10754e-03
       O -4.33606e-05  4.59478e-03  3.71351e-03
       H -1.12843e-04 -4.29753e-03  1.15186e-03
       H  5.51448e-05 -1.70968e-03 -4.82736e-03
       O -7.91486e-05 -4.80652e-03  3.24855e-03
       H -2.48005e-04  4.62407e-03  6.05177e-04
       H  3.83366e-04  1.10003e-03 -4.69360e-03
       O -4.10546e-03  2.60547e-03  4.10829e-03
       H  6.48941e-04 -4.12731e-03 -2.15855e-03
       H  3.91564e-03  1.69846e-03 -1.60425e-03
       O  4.26991e-03  2.25189e-03 -3.22898e-03
       H -3.84101e-03 -2.58264e-03 -4.43575e-04
       H -1.11572e-03 -1.95924e-04  4.59788e-03
       O -1.97022e-06 -5.27805e-03 -3.07254e-03
       H -3.26354e-03  3.19273e-03  1.59051e-03
       H  3.36766e-03  2.39382e-03  2.16221e-03
       O -1.25806e-05  5.28374e-03 -3.08726e-03
       H -3.37832e-03 -2.43485e-03  2.17090e-03
       H  3.29981e-03 -3.15582e-03  1.59253e-03
       O -4.26046e-03 -2.28183e-03 -3.22366e-03
       H  3.81555e-03  2.55530e-03 -4.60221e-04
       H  1.10953e-03  2.23295e-04  4.57982e-03
       O -4.15696e-03  2.47949e-03 -3.28096e-03
       H  4.13671e-03 -2.08280e-03 -6.20586e-04
       H  7.91403e-04 -8.47936e-04  4.68346e-03
       O -4.19471e-03 -2.41817e-03  3.31864e-03
       H  3.86710e-03  2.51809e-03  6.29093e-04
       H  1.08075e-03  3.16903e-04 -4.70745e-03
       O -4.55448e-03 -2.55307e-03 -3.18306e-03
       H  1.09400e-03  4.41470e-03  1.52460e-03
       H  3.88632e-03 -1.67534e-03  2.09881e-03
       O -4.56587e-07 -5.21970e-03  3.22285e-03
       H -3.21464e-03  3.10000e-03 -1.51574e-03
       H  3.34475e-03  2.44406e-03 -2.10929e-03
       O -2.30583e-05 -4.81711e-03 -3.29790e-03
       H -1.93845e-04  4.61747e-03 -5.70781e-04
       H  2.78484e-04  1.04086e-03  4.68934e-03
       O  4.12304e-03 -2.49729e-03  3.27775e-03
       H -4.13164e-03  2.09511e-03  6.35062e-04
       H -7.66889e-04  9.19604e-04 -4.69539e-03
       O  4.48557e-03 -2.62215e-03 -3.24699e-03
       H -4.30365e-03 -1.22459e-03  1.55851e-03
       H -4.71499e-04  4.09251e-03  2.08622e-03
       O  4.50012e-03  2.54474e-03  3.21913e-03
       H -1.06157e-03 -4.40179e-03 -1.50985e-03
       H -3.89533e-03  1.65229e-03 -2.15349e-03
       O -4.39258e-03 -2.30293e-03  3.99662e-03
       H  4.96748e-04  4.36206e-03 -1.68295e-03
       H  3.87240e-03 -1.60558e-03 -2.27737e-03
       O -4.24123e-03 -2.27558e-03  3.19313e-03
       H  3.83781e-03  2.58916e-03  4.43902e-04
       H  1.10879e-03  2.11288e-04 -4.57525e-03
       O -3.95346e-03  2.38416e-03  3.61482e-03
       H  3.72710e-03 -2.18129e-03  9.94056e-04
       H  1.46302e-03 -8.61857e-04 -4.69178e-03
       O  5.01336e-06 -5.25711e-03  3.09623e-03
       H -3.26998e-03  3.20736e-03 -1.57813e-03
       H  3.38441e-03  2.37853e-03 -2.15797e-03
       O -2.86402e-05 -4.56613e-03 -3.65637e-03
       H  7.41634e-05  4.29958e-03 -1.13619e-03
       H  3.68801e-05  1.77061e-03  4.81532e-03
       O  4.41219e-03  2.27643e-03 -3.99244e-03
       H -4.90194e-04 -4.32435e-03  1.65436e-03
       H -3.87640e-03  1.55613e-03  2.25137e-03
       O  4.05909e-03 -2.66774e-03 -4.15190e-03
       H -3.97983e-03 -1.73617e-03  1.61829e-03
       H -6.60173e-04  4.21358e-03  2.18745e-03
       O  3.91355e-03 -2.42180e-03 -3.63456e-03
       H -3.71179e-03  2.20006e-03 -9.81816e-04
       H -1.42891e-03  9.08555e-04  4.70971e-03
       O  1.54148e-05  5.26484e-03  3.11698e-03
       H -3.37896e-03 -2.43161e-03 -2.17266e-03
       H  3.30035e-03 -3.17304e-03 -1.59639e-03
       O  3.89669e-03 -2.43887e-03  3.62537e-03
       H -3.71468e-03  2.20100e-03  9.89213e-04
       H -1.44483e-03  9.34967e-04 -4.68719e-03
       O  4.24851e-03  2.25736e-03  3.17626e-03
       H -3.87224e-03 -2.56173e-03  4.20113e-04
       H -1.11380e-03 -1.77225e-04 -4.57053e-03
       O  4.38777e-03  2.29026e-03  3.97653e-03
       H -4.66767e-04 -4.32883e-03 -1.67771e-03
       H -3.88471e-03  1.55792e-03 -2.27602e-03
       O -4.53127e-03 -2.55437e-03  3.22186e-03
       H  1.08236e-03  4.42208e-03 -1.51470e-03
       H  3.89945e-03 -1.69007e-03 -2.12082e-03
       O -4.51615e-03  2.62981e-03 -3.20174e-03
       H  4.84633e-04 -4.11676e-03  2.07035e-03
       H  4.28484e-03  1.21758e-03  1.52875e-03
       O -4.16893e-03  2.44510e-03  3.27947e-03
       H  4.12341e-03 -2.06002e-03  6.38300e-04
       H  7.97264e-04 -8.43238e-04 -4.69874e-03
       O  2.37435e-05  4.81049e-03 -3.31193e-03
       H  2.20898e-04 -4.62823e-03 -5.86505e-04
       H -2.54658e-04 -1.03987e-03  4.67091e-03
       O  1.10615e-05  5.21769e-03  3.22945e-03
       H -3.33182e-03 -2.51157e-03 -2.11896e-03
       H  3.22463e-03 -3.09316e-03 -1.50141e-03
       O  4.52371e-03  2.56091e-03 -3.21174e-03
       H -1.05090e-03 -4.38896e-03  1.51813e-03
       H -3.87722e-03  1.65387e-03  2.12699e-03
       O  4.19190e-03  2.37638e-03  3.30896e-03
       H -3.90839e-03 -2.48710e-03  6.16507e-04
       H -1.10539e-03 -2.83592e-04 -4.70150e-03
       O  4.14390e-03 -2.49162e-03 -3.27883e-03
       H -4.12128e-03  2.09007e-03 -6.19403e-04
       H -7.52740e-04  8.91851e-04  4.68426e-03
       O -3.93993e-03  2.39214e-03 -3.62887e-03
       H  3.71735e-03 -2.18139e-03 -9.88274e-04
       H  1.45714e-03 -8.82818e-04  4.70681e-03
       O -4.10166e-03  2.65553e-03 -4.08236e-03
       H  6.88469e-04 -4.22733e-03  2.18237e-03
       H  3.95675e-03  1.73252e-03  1.59260e-03
       O -4.42704e-03 -2.28850e-03 -3.97702e-03
       H  5.18158e-04  4.35833e-03  1.64857e-03
       H  3.88188e-03 -1.57919e-03  2.24642e-03
       O  2.83906e-06  4.57811e-03 -3.67170e-03
       H -5.40682e-05 -4.30677e-03 -1.16093e-03
       H -1.25689e-05 -1.74187e-03  4.80109e-03
       O  4.12488e-03 -2.62998e-03  4.13962e-03
       H -3.93446e-03 -1.73980e-03 -1.61261e-03
       H -6.50714e-04  4.13658e-03 -2.17962e-03
       O  4.79991e-05  4.80976e-03  3.26043e-03
       H  2.55575e-04 -4.60801e-03  6.13633e-04
       H -3.62382e-04 -1.09504e-03 -4.69236e-03
       O  5.41283e-06 -4.58758e-03  3.70132e-03
       H  1.11578e-04  4.31345e-03  1.15314e-03
       H -1.61323e-05  1.72696e-03 -4.82820e-03
       O -4.47882e-03  2.63387e-03  3.20092e-03
       H  4.85100e-04 -4.20563e-03 -2.08537e-03
       H  4.35031e-03  1.23243e-03 -1.51579e-03
       O  4.20132e-03  2.39629e-03 -3.29749e-03
       H -3.89362e-03 -2.50674e-03 -5.76438e-04
       H -1.03186e-03 -2.71778e-04  4.68173e-03
       O -3.38279e-05 -5.19177e-03 -3.21944e-03
       H -3.16791e-03  3.13410e-03  1.55284e-03
       H  3.31025e-03  2.43397e-03  2.04659e-03
       O  6.88724e-06  5.21022e-03 -3.23146e-03
       H -3.31391e-03 -2.48442e-03  2.06819e-03
       H  3.22069e-03 -3.09764e-03  1.54086e-03
       O -4.17957e-03 -2.43717e-03 -3.28997e-03
       H  3.87306e-03  2.48446e-03 -5.84730e-04
       H  1.03422e-03  2.97972e-04  4.68935e-03
       O  4.47366e-03 -2.62427e-03  3.24096e-03
       H -4.37899e-03 -1.24449e-03 -1.52353e-03
       H -4.92297e-04  4.19701e-03 -2.10754e-03
       O -4.33528e-05  4.59483e-03  3.71350e-03
       H -1.12844e-04 -4.29754e-03  1.15185e-03
       H  5.51362e-05 -1.70975e-03 -4.82734e-03
       O -7.91486e-05 -4.80651e-03  3.24855e-03
       H -2.48005e-04  4.62407e-03  6.05170e-04
       H  3.83369e-04  1.10003e-03 -4.69361e-03
       O -4.10547e-03  2.60550e-03  4.10831e-03
       H  6.48944e-04 -4.12731e-03 -2.15855e-03
       H  3.91565e-03  1.69843e-03 -1.60426e-03
       O  4.26999e-03  2.25201e-03 -3.22902e-03
       H -3.84103e-03 -2.58267e-03 -4.43593e-04
       H -1.11583e-03 -1.96034e-04  4.59785e-03
       O -1.91249e-06 -5.27802e-03 -3.07257e-03
       H -3.26357e-03  3.19272e-03  1.59051e-03
       H  3.36761e-03  2.39382e-03  2.16223e-03
       O -1.26417e-05  5.28368e-03 -3.08731e-03
       H -3.37830e-03 -2.43485e-03  2.17091e-03
       H  3.29985e-03 -3.15577e-03  1.59255e-03
       O -4.26047e-03 -2.28184e-03 -3.22361e-03
       H  3.81555e-03  2.55530e-03 -4.60276e-04
       H  1.10953e-03  2.23293e-04  4.57983e-03
288
# CELL(abcABC):   25.55133    29.50414    27.81677    90.00000    90.00000    90.00000  Step:           2  Bead:       0 forces{atomic_unit}  cell{atomic_unit}
       O -2.65535e-03  1.61663e-03 -2.20843e-03
       H  3.13618e-03 -1.60502e-03 -9.41099e-04
       H  1.28643e-04 -3.67448e-04  3.79731e-03
       O -2.70491e-03 -1.54447e-03  2.23410e-03
       H  2.95188e-03  1.89071e-03  9.61755e-04
       H  3.49600e-04 -2.01010e-05 -3.81812e-03
       O -2.97619e-03 -1.74605e-03 -2.08230e-03
       H  3.44444e-04  3.64775e-03  9.67906e-04
       H  2.95183e-03 -1.75858e-03  1.44308e-03
       O  4.46195e-05 -3.45749e-03  2.12225e-03
       H -2.92535e-03  2.08637e-03 -9.65609e-04
       H  2.99652e-03  1.58936e-03 -1.44860e-03
       O -2.80784e-05 -3.11493e-03 -2.19322e-03
       H -1.10280e-04  3.51208e-03 -9.24531e-04
       H  2.05455e-04  2.65762e-04  3.79831e-03
       O  2.62858e-03 -1.63596e-03  2.21340e-03
       H -3.13266e-03  1.61588e-03  9.47723e-04
       H -1.10873e-04  4.38811e-04 -3.80733e-03
       O  2.97843e-03 -1.69352e-03 -2.13671e-03
       H -3.27996e-03 -1.49320e-03  1.00291e-03
       H  9.21401e-05  3.37363e-03  1.42089e-03
       O  2.95000e-03  1.70767e-03  2.11886e-03
       H -3.35770e-04 -3.62479e-03 -9.64223e-04
       H -2.96241e-03  1.75527e-03 -1.48746e-03
       O -2.82134e-03 -1.53579e-03  2.66699e-03
       H -1.28955e-04  3.62950e-03 -1.05534e-03
       H  2.92117e-03 -1.74850e-03 -1.57704e-03
       O -2.76826e-03 -1.40262e-03  2.08213e-03
       H  2.93295e-03  1.96685e-03  8.19015e-04
       H  3.80594e-04 -1.24553e-04 -3.70198e-03
       O -2.49772e-03  1.57691e-03  2.40116e-03
       H  2.79914e-03 -1.66740e-03  1.32678e-03
       H  6.72536e-04 -4.13257e-04 -3.78854e-03
       O  8.90991e-05 -3.50294e-03  1.99422e-03
       H -2.96780e-03  2.20066e-03 -1.00653e-03
       H  3.00581e-03  1.52964e-03 -1.50999e-03
       O -3.31217e-05 -2.90616e-03 -2.49553e-03
       H  9.09647e-05  3.24043e-03 -1.41020e-03