1080
# CELL(abcABC):   76.65400    73.76034    13.90838    90.00000    90.00000    90.00000  Step:           0  Bead:       0 forces{atomic_unit}  cell{atomic_unit}
       O -1.22820e-02  6.30499e-03 -9.95430e-03
       H -3.05192e-03 -1.86520e-02  4.44651e-03
       H  1.43323e-02  1.24436e-02  4.64582e-03
       O  3.61796e-04 -1.52215e-02 -9.25676e-03
       H -9.05290e-05 -2.98743e-03  1.91472e-02
       H -1.09954e-04  1.69096e-02 -9.92407e-03
       O  1.23336e-02 -6.20323e-03 -8.96812e-03
       H  2.84422e-03 -1.81344e-03  1.90944e-02
       H -1.47848e-02  8.00932e-03 -9.94355e-03
       O  1.28037e-02 -6.94832e-03 -9.61053e-03
       H -1.50784e-02 -1.15517e-02  4.59775e-03
       H  2.57172e-03  1.87302e-02  5.19730e-03
       O -4.14939e-04 -1.41910e-02 -9.33395e-03
       H -1.75084e-02  6.88827e-03  5.16086e-03
       H  1.76826e-02  7.09616e-03  4.61114e-03
       O  1.23550e-02 -5.77591e-03  9.92971e-03
       H -1.46783e-02 -1.21314e-02 -4.39880e-03
       H  2.88416e-03  1.85720e-02 -5.23298e-03
       O  1.17321e-02 -8.18899e-03 -9.21566e-03
       H  2.89216e-03 -1.58085e-03  1.91554e-02
       H -1.43440e-02  8.96546e-03 -9.95081e-03
       O  2.43040e-04 -1.36770e-02  1.12258e-02
       H -1.51406e-04 -3.78321e-03 -1.89773e-02
       H -1.27499e-05  1.70738e-02  9.19207e-03
       O -1.21179e-02 -7.39346e-03  1.00378e-02
       H -3.17045e-03 -1.43881e-03 -1.91663e-02
       H  1.48491e-02  8.18552e-03  9.64424e-03
       O  5.24317e-04 -1.36391e-02 -1.01765e-02
       H -4.22576e-04 -3.54019e-03  1.92194e-02
       H -3.42720e-05  1.71247e-02 -9.55557e-03
       O  4.80078e-04 -1.39008e-02  9.06229e-03
       H -1.77980e-02  6.93615e-03 -4.33017e-03
       H  1.77306e-02  6.68277e-03 -5.03903e-03
       O -1.23434e-02 -5.82535e-03 -1.01780e-02
       H  1.45476e-02 -1.22251e-02  4.84694e-03
       H -2.68520e-03  1.86566e-02  5.15251e-03
       O -1.24626e-02 -7.44364e-03  1.01132e-02
       H -2.74021e-03 -1.92961e-03 -1.90278e-02
       H  1.45772e-02  8.98351e-03  9.64941e-03
       O  1.39751e-04  1.43480e-02  8.75918e-03
       H -1.78470e-02 -6.96260e-03 -4.10412e-03
       H  1.77884e-02 -6.81664e-03 -4.46140e-03
       O  9.27281e-04 -1.38889e-02  1.03212e-02
       H -1.77733e-02  6.81600e-03 -4.84732e-03
       H  1.74409e-02  7.00476e-03 -5.15157e-03
       O  1.08243e-03 -1.35444e-02  1.04135e-02
       H -6.31459e-04 -3.47060e-03 -1.90957e-02
       H -1.56624e-04  1.72527e-02  9.19404e-03
       O -2.73754e-05  1.35646e-02  9.55199e-03
       H  1.59501e-05  3.27098e-03 -1.92197e-02
       H  5.68534e-05 -1.72583e-02  9.50762e-03
       O  2.53004e-04  1.40804e-02  9.46242e-03
       H -1.75930e-02 -7.07408e-03 -4.48826e-03
       H  1.75751e-02 -6.95138e-03 -5.05892e-03
       O  3.82410e-05 -1.40502e-02  9.06749e-03
       H -1.79361e-02  6.67868e-03 -4.33627e-03
       H  1.78658e-02  6.73025e-03 -4.29345e-03
       O -1.31752e-02  7.73826e-03  9.16561e-03
       H -2.54077e-03  1.47861e-03 -1.91065e-02
       H  1.47648e-02 -8.47858e-03  9.94088e-03
       O -6.89509e-04  1.45189e-02  9.57951e-03
       H  7.45874e-05  3.16366e-03 -1.91161e-02
       H  4.76729e-04 -1.70767e-02  9.72224e-03
       O  7.13770e-04  1.45704e-02  1.04111e-02
       H -1.76630e-02 -6.61439e-03 -4.92922e-03
       H  1.74206e-02 -7.13159e-03 -4.83344e-03
       O  1.19835e-02  6.50203e-03  9.29592e-03
       H -1.48367e-02  1.19728e-02 -4.32360e-03
       H  3.09833e-03 -1.87753e-02 -4.95464e-03
       O  2.02210e-04 -1.45722e-02  8.61288e-03
       H -5.22516e-05 -3.10920e-03 -1.91410e-02
       H -4.33208e-05  1.67137e-02  1.01232e-02
       O -1.18221e-02  7.64709e-03 -9.80538e-03
       H -3.44133e-03 -1.87073e-02  4.47662e-03
       H  1.47419e-02  1.19808e-02  4.65969e-03
       O  1.77031e-04 -1.45628e-02 -1.01902e-02
       H  2.84539e-04 -3.27079e-03  1.89981e-02
       H -2.80188e-04  1.71276e-02 -9.56833e-03
       O  1.19590e-02 -5.62492e-03 -9.96097e-03
       H  3.04335e-03 -2.45963e-03  1.90975e-02
       H -1.48012e-02  8.36773e-03 -9.76269e-03
       O  1.23096e-02 -7.26368e-03 -1.03960e-02
       H -1.49902e-02 -1.14754e-02  4.82232e-03
       H  2.90268e-03  1.85705e-02  5.36624e-03
       O -5.58971e-04 -1.41173e-02 -9.53135e-03
       H -1.75820e-02  7.00082e-03  5.06415e-03
       H  1.77198e-02  7.00525e-03  4.52763e-03
       O  2.51961e-04 -1.37936e-02 -9.85810e-03
       H -1.00682e-04 -3.33739e-03  1.92267e-02
       H -1.50044e-04  1.72087e-02 -9.53002e-03
       O  1.19936e-02 -8.23472e-03 -9.57895e-03
       H  2.79705e-03 -1.41204e-03  1.91899e-02
       H -1.45628e-02  9.02537e-03 -9.69733e-03
       O  1.21433e-02 -6.36989e-03 -9.32017e-03
       H -1.49113e-02 -1.19502e-02  4.31192e-03
       H  2.90217e-03  1.86419e-02  4.98041e-03
       O  4.65115e-04 -1.37624e-02 -9.30190e-03
       H -1.77380e-02  6.87713e-03  4.60568e-03
       H  1.76886e-02  6.88168e-03  5.03279e-03
       O -1.24181e-02 -5.88520e-03  1.00868e-02
       H  1.46379e-02 -1.22278e-02 -4.85493e-03
       H -2.74340e-03  1.86401e-02 -5.07141e-03
       O -1.28260e-02 -6.57685e-03 -9.25374e-03
       H -2.64510e-03 -1.77557e-03  1.92627e-02
       H  1.49635e-02  8.15812e-03 -9.89768e-03
       O -3.94061e-04 -1.41938e-02  1.00153e-02
       H -2.75578e-04 -3.44248e-03 -1.91105e-02
       H  4.15888e-04  1.69292e-02  9.64045e-03
       O  1.11728e-03 -1.34036e-02 -1.01553e-02
       H -1.79553e-02  6.44087e-03  4.51647e-03
       H  1.76134e-02  6.80380e-03  5.06359e-03
       O  1.26357e-02  7.32337e-03 -8.62381e-03
       H  2.67986e-03  1.63665e-03  1.91910e-02
       H -1.44448e-02 -8.40813e-03 -1.01845e-02
       O -1.22831e-02 -6.38576e-03 -1.04437e-02
       H -2.90917e-03 -2.02490e-03  1.90805e-02
       H  1.49291e-02  8.61980e-03 -9.43530e-03
       O -1.24507e-02 -6.63763e-03 -1.01385e-02
       H  1.45486e-02 -1.20775e-02  4.83023e-03
       H -2.77026e-03  1.85569e-02  4.56145e-03
       O  1.17863e-02  6.52275e-03 -1.01072e-02
       H -1.45101e-02  1.23134e-02  5.15586e-03
       H  2.87097e-03 -1.87297e-02  4.44627e-03
       O -1.00232e-03  1.36808e-02  1.00672e-02
       H -1.75444e-02 -6.98502e-03 -5.06556e-03
       H  1.78111e-02 -6.51220e-03 -4.81113e-03
       O  1.26112e-02 -7.07006e-03 -1.00834e-02
       H  2.97086e-03 -1.40059e-03  1.89394e-02
       H -1.50263e-02  8.20152e-03 -9.61609e-03
       O  1.23338e-02  7.16376e-03  9.94917e-03
       H  2.86400e-03  1.83651e-03 -1.90443e-02
       H -1.44503e-02 -8.84169e-03  9.66925e-03
       O  1.16357e-02  6.82359e-03 -1.00317e-02
       H -1.48040e-02  1.17352e-02  4.55253e-03
       H  3.26955e-03 -1.85159e-02  5.24473e-03
       O -9.41999e-04 -1.41843e-02 -9.33304e-03
       H  1.76151e-04 -3.10991e-03  1.92034e-02
       H  4.93442e-04  1.70847e-02 -9.69402e-03
       O -6.92676e-04  1.35446e-02 -1.01998e-02
       H  5.00235e-04  3.55247e-03  1.91217e-02
       H  2.49240e-05 -1.70603e-02 -9.50528e-03
       O  4.55973e-05  1.44183e-02 -9.20646e-03
       H -1.76587e-02 -6.83545e-03  4.42520e-03
       H  1.77885e-02 -7.10320e-03  4.55169e-03
       O -1.61342e-04 -1.46312e-02 -8.91844e-03
       H -1.77674e-02  7.00925e-03  4.58675e-03
       H  1.77671e-02  6.94986e-03  4.32273e-03
       O -1.29601e-02 -6.71963e-03  1.02693e-02
       H  1.45948e-02 -1.20235e-02 -4.88025e-03
       H -2.61591e-03  1.85763e-02 -4.73360e-03
       O -1.18938e-04  1.41505e-02 -1.01011e-02
       H  4.85368e-04  3.34647e-03  1.90151e-02
       H -4.38536e-04 -1.71043e-02 -9.44431e-03
       O  1.23675e-02  6.38640e-03  9.02129e-03
       H  2.86807e-03  1.73806e-03 -1.92163e-02
       H -1.48116e-02 -8.00732e-03  9.98231e-03
       O -1.19324e-02 -6.42224e-03  9.56067e-03
       H -3.03230e-03 -1.78327e-03 -1.92319e-02
       H  1.48144e-02  8.42696e-03  9.77212e-03
       O -1.22565e-02 -7.66196e-03  9.65195e-03
       H  1.48438e-02 -1.16252e-02 -5.23644e-03
       H -2.54825e-03  1.88346e-02 -4.62266e-03
       O -1.16536e-02  7.47525e-03  9.26375e-03
       H -2.90404e-03 -1.88751e-02 -4.50195e-03
       H  1.47388e-02  1.18057e-02 -5.10492e-03
       O -1.21419e-02  7.71448e-03  9.59996e-03
       H -2.84043e-03  1.48174e-03 -1.92092e-02
       H  1.45717e-02 -8.87157e-03  9.67125e-03
       O -1.21999e-02 -7.82408e-03  9.58319e-03
       H -2.77983e-03 -1.53147e-03 -1.91760e-02
       H  1.45628e-02  8.93236e-03  9.70549e-03
       O -1.20377e-02 -6.48784e-03  9.32196e-03
       H  1.48159e-02 -1.18551e-02 -4.33655e-03
       H -2.92697e-03  1.87088e-02 -4.94317e-03
       O -1.20685e-02  7.37436e-03  9.45467e-03
       H -2.61894e-03 -1.88583e-02 -4.46431e-03
       H  1.47365e-02  1.17250e-02 -5.06334e-03
       O  7.42822e-04 -1.43974e-02  9.56493e-03
       H -5.93410e-05 -3.16128e-03 -1.91343e-02
       H -4.51021e-04  1.70316e-02  9.66560e-03
       O  1.29291e-02 -6.63081e-03  9.52775e-03
       H  2.68126e-03 -1.61773e-03 -1.91496e-02
       H -1.50295e-02  8.10461e-03  9.72188e-03
       O  1.19516e-02 -7.24459e-03  9.55499e-03
       H -1.47335e-02 -1.17931e-02 -5.09573e-03
       H  2.66199e-03  1.88565e-02 -4.60114e-03
       O -4.48294e-04 -1.36442e-02  9.34162e-03
       H -1.76754e-02  6.79470e-03 -4.95564e-03
       H  1.77360e-02  6.89484e-03 -4.35227e-03
       O  1.22628e-02  8.02260e-03  9.58442e-03
       H  2.74972e-03  1.45987e-03 -1.92000e-02
       H -1.46091e-02 -9.00490e-03  9.71297e-03
       O  1.13709e-02 -7.57564e-03  1.02106e-02
       H  3.25751e-03 -1.56109e-03 -1.91409e-02
       H -1.47395e-02  8.70710e-03  9.53694e-03
       O  1.24686e-02  6.76561e-03 -9.87024e-03
       H  3.13002e-03  1.47605e-03  1.89824e-02
       H -1.48835e-02 -7.95995e-03 -9.67147e-03
       O  1.16711e-02  7.84192e-03  1.02933e-02
       H -1.47739e-02  1.16147e-02 -5.34970e-03
       H  3.01644e-03 -1.87717e-02 -4.86149e-03
       O  1.11734e-02 -7.80336e-03 -1.00152e-02
       H -1.47031e-02 -1.17319e-02  5.12894e-03
       H  3.38985e-03  1.87932e-02  4.72378e-03
       O -1.17318e-02  7.24173e-03 -9.25065e-03
       H -2.95141e-03 -1.87428e-02  4.55216e-03
       H  1.47683e-02  1.18779e-02  5.01129e-03
       O -1.24712e-02  7.39667e-03 -1.01757e-02
       H -2.64912e-03  1.85879e-03  1.89439e-02
       H  1.45352e-02 -8.92430e-03 -9.52954e-03
       O -1.30890e-02 -7.52397e-03 -9.05201e-03
       H -2.60804e-03 -1.56668e-03  1.92178e-02
       H  1.46497e-02  8.32692e-03 -1.00249e-02
       O -3.36240e-04  1.34789e-02 -1.00903e-02
       H -1.75100e-02 -6.95140e-03  4.43935e-03
       H  1.78781e-02 -6.36740e-03  5.17097e-03
       O  1.76839e-05  1.44012e-02  9.99855e-03
       H  1.95242e-04  3.31381e-03 -1.90551e-02
       H -3.63930e-04 -1.69868e-02  9.68639e-03
       O  1.24950e-02  7.22626e-03 -9.93119e-03
       H  3.02381e-03  1.43802e-03  1.90625e-02
       H -1.49052e-02 -8.22663e-03 -9.73530e-03
       O  1.16950e-02  7.03089e-03  1.00527e-02
       H -1.48060e-02  1.18027e-02 -4.62506e-03
       H  3.28944e-03 -1.86205e-02 -5.23483e-03
       O  1.19088e-02 -6.53782e-03 -1.00291e-02
       H -1.44797e-02 -1.21510e-02  5.25134e-03
       H  2.74176e-03  1.86083e-02  4.50106e-03
       O -1.17049e-02  7.33413e-03 -9.43589e-03
       H -2.87752e-03 -1.89803e-02  4.46671e-03
       H  1.47745e-02  1.19008e-02  5.10071e-03
       O -1.32493e-02  7.40265e-03 -9.33068e-03
       H -2.55029e-03  1.49695e-03  1.91467e-02
       H  1.47624e-02 -8.38285e-03 -9.81346e-03
       O -1.31016e-02 -6.21382e-03 -9.51726e-03
       H -2.63333e-03 -1.79106e-03  1.91338e-02
       H  1.50756e-02  8.05891e-03 -9.70560e-03
       O -1.19939e-02 -7.47801e-03 -9.45442e-03
       H  1.49541e-02 -1.16689e-02  4.98883e-03
       H -2.70109e-03  1.87406e-02  4.50427e-03
       O -1.23961e-02 -7.33884e-03  9.92528e-03
       H -2.88865e-03 -1.78182e-03 -1.90636e-02
       H  1.45873e-02  8.86349e-03  9.73335e-03
       O -1.27155e-02  6.98006e-03 -1.02225e-02
       H -2.94885e-03  1.38463e-03  1.89645e-02
       H  1.49806e-02 -8.12808e-03 -9.50867e-03
       O  1.04100e-03 -1.37522e-02  1.00983e-02
       H -1.78431e-02  6.53584e-03 -4.80421e-03
       H  1.75729e-02  7.05000e-03 -5.12366e-03
       O -1.20354e-02 -6.92904e-03 -1.02243e-02
       H  1.46043e-02 -1.19994e-02  5.29312e-03
       H -2.74148e-03  1.86947e-02  4.55637e-03
       O  1.16938e-02  7.23280e-03 -9.18399e-03
       H -1.47055e-02  1.19207e-02  4.95102e-03
       H  2.93081e-03 -1.88001e-02  4.52868e-03
       O  1.10892e-02 -7.80492e-03  1.00857e-02
       H -1.47129e-02 -1.16311e-02 -5.14312e-03
       H  3.33644e-03  1.87037e-02 -4.68371e-03
       O  1.29519e-02 -7.22767e-03 -9.06859e-03
       H  2.71294e-03 -1.50311e-03  1.91731e-02
       H -1.45825e-02  8.39220e-03 -1.00036e-02
       O  1.14121e-02  7.31838e-03  1.02710e-02
       H  3.27577e-03  1.63324e-03 -1.91557e-02
       H -1.47217e-02 -8.45398e-03  9.56452e-03
       O -1.25091e-02 -5.98986e-03  9.07313e-03
       H -2.82513e-03 -1.78255e-03 -1.91652e-02
       H  1.48158e-02  7.98346e-03  9.94130e-03
       O -1.08241e-02  7.53514e-03 -9.95506e-03
       H -3.57835e-03  1.48907e-03  1.90748e-02
       H  1.46091e-02 -8.62761e-03 -9.70916e-03
       O  1.23529e-02  7.91246e-03  1.03252e-02
       H -1.48942e-02  1.14717e-02 -4.74045e-03
       H  3.08823e-03 -1.85913e-02 -4.98116e-03
       O  1.19248e-02 -7.43624e-03 -9.78125e-03
       H -1.48470e-02 -1.19753e-02  4.38190e-03
       H  3.49234e-03  1.85716e-02  4.68149e-03
       O -1.23487e-02  7.64347e-03 -9.70643e-03
       H -2.56653e-03 -1.88468e-02  4.67989e-03
       H  1.49992e-02  1.15597e-02  5.18746e-03
       O -1.19866e-02  6.62736e-03 -1.13143e-02
       H -3.24776e-03  2.07022e-03  1.90049e-02
       H  1.49347e-02 -8.54012e-03 -9.21503e-03
       O -1.33000e-02 -6.19798e-03 -9.59196e-03
       H -2.63061e-03 -1.74984e-03  1.91988e-02
       H  1.51423e-02  8.04693e-03 -9.67814e-03
       O -1.15347e-02 -8.13063e-03 -1.00338e-02
       H  1.49296e-02 -1.16297e-02  5.25855e-03
       H -3.11703e-03  1.86962e-02  4.55210e-03
       O -2.28594e-05  1.45569e-02  8.65347e-03
       H -4.23177e-05  3.16976e-03 -1.91664e-02
       H -3.71153e-05 -1.67444e-02  1.02161e-02
       O  1.16766e-02 -6.76146e-03  1.00979e-02
       H -1.47713e-02 -1.19570e-02 -4.54451e-03
       H  3.35923e-03  1.85227e-02 -5.30808e-03
       O  6.23798e-04 -1.45609e-02  1.03809e-02
       H -1.77121e-02  6.65684e-03 -4.91738e-03
       H  1.74730e-02  7.01828e-03 -4.87138e-03
       O -6.87698e-04 -1.35412e-02  1.02591e-02
       H  3.34484e-04 -3.65215e-03 -1.91102e-02
       H  3.94790e-05  1.70533e-02  9.59375e-03
       O -7.97696e-05 -1.41263e-02 -1.00344e-02
       H -1.75355e-02  7.13850e-03  4.42721e-03
       H  1.78196e-02  6.69653e-03  5.42364e-03
       O  1.28678e-02 -6.83916e-03  1.03321e-02
       H -1.45736e-02 -1.19148e-02 -4.86651e-03
       H  2.63237e-03  1.86648e-02 -4.84575e-03
       O -1.17634e-02 -7.14066e-03 -1.12686e-02
       H -3.31985e-03 -1.64920e-03  1.89470e-02
       H  1.48761e-02  8.65995e-03 -9.20509e-03
       O -1.26835e-02  7.21035e-03  8.64561e-03
       H -2.76514e-03  1.52806e-03 -1.91479e-02
       H  1.45283e-02 -8.35291e-03  1.02266e-02
       O  1.14767e-02 -7.21403e-03  1.01670e-02
       H  3.33587e-03 -1.55922e-03 -1.91354e-02
       H -1.47661e-02  8.55248e-03  9.55175e-03
       O  1.18615e-02  6.37589e-03 -1.09758e-02
       H  3.24260e-03  2.08248e-03  1.90424e-02
       H -1.47235e-02 -8.48842e-03 -9.37836e-03
       O  1.11153e-02  7.80419e-03  1.00484e-02
       H -1.47098e-02  1.17973e-02 -5.12038e-03
       H  3.45839e-03 -1.86925e-02 -4.68336e-03
       O  1.19148e-02 -6.85887e-03 -9.81261e-03
       H -1.43106e-02 -1.22428e-02  5.35403e-03
       H  2.79429e-03  1.88634e-02  4.40285e-03
       O  4.02040e-05  1.45293e-02  8.66949e-03
       H  1.20189e-04  3.20932e-03 -1.91108e-02
       H -2.12748e-05 -1.66911e-02  1.02130e-02
       O -1.15592e-02 -6.78540e-03  1.01636e-02
       H  1.48291e-02 -1.18293e-02 -4.45642e-03
       H -3.34660e-03  1.85326e-02 -5.15565e-03
       O -5.90400e-04 -1.41997e-02  1.01615e-02
       H -1.76567e-02  7.03317e-03 -4.76881e-03
       H  1.76536e-02  6.42288e-03 -4.67051e-03
       O  6.70824e-04 -1.37989e-02  1.05503e-02
       H -4.01072e-04 -3.45326e-03 -1.91151e-02
       H -2.67943e-05  1.71543e-02  9.37340e-03
       O  1.29113e-02 -6.40816e-03  9.30157e-03
       H  2.74169e-03 -1.64084e-03 -1.92421e-02
       H -1.50428e-02  8.02454e-03  9.84322e-03
       O  1.28045e-02 -7.39825e-03  9.36714e-03
       H -1.49969e-02 -1.17028e-02 -4.61798e-03
       H  2.73032e-03  1.87723e-02 -4.73544e-03
       O -3.40476e-04 -1.37213e-02  9.30301e-03
       H -1.77005e-02  6.86552e-03 -5.02471e-03
       H  1.76299e-02  6.89775e-03 -4.45251e-03
       O -1.18475e-02  7.91528e-03  9.27472e-03
       H -2.72713e-03  1.42449e-03 -1.91028e-02
       H  1.45757e-02 -8.99289e-03  9.66157e-03
       O  1.07399e-02 -7.56672e-03  1.00466e-02
       H  3.52650e-03 -1.51048e-03 -1.91654e-02
       H -1.45795e-02  8.71028e-03  9.60731e-03
       O -4.47144e-04 -1.42586e-02 -9.98788e-03
       H  4.14611e-04 -3.46620e-03  1.91302e-02
       H -1.67237e-04  1.70449e-02 -9.65957e-03
       O -1.23839e-02  7.67194e-03  9.89807e-03
       H -3.28471e-03 -1.87115e-02 -4.78383e-03
       H  1.49058e-02  1.17788e-02 -4.44724e-03
       O -1.23829e-02 -6.56610e-03 -8.92758e-03
       H  1.48845e-02 -1.19875e-02  4.34642e-03
       H -3.01333e-03  1.87547e-02  5.00395e-03
       O -1.15798e-02  7.35273e-03 -9.30185e-03
       H -2.93691e-03 -1.88473e-02  4.42829e-03
       H  1.47061e-02  1.17878e-02  5.11772e-03
       O -1.11958e-02 -7.81513e-03  9.84879e-03
       H  1.46642e-02 -1.18686e-02 -5.08775e-03
       H -3.32156e-03  1.88175e-02 -4.35481e-03
       O -1.20462e-02 -6.42205e-03 -9.56671e-03
       H -3.01347e-03 -1.76559e-03  1.93697e-02
       H  1.48698e-02  8.41827e-03 -9.80861e-03
       O -1.19641e-02  6.54250e-03  1.13495e-02
       H -3.20156e-03  2.10751e-03 -1.90320e-02
       H  1.48994e-02 -8.55889e-03  9.16820e-03
       O  8.06985e-04 -1.43722e-02 -1.01805e-02
       H -1.78068e-02  6.41952e-03  4.80124e-03
       H  1.75433e-02  7.09840e-03  4.59537e-03
       O  1.24365e-02  7.56221e-03 -1.01003e-02
       H  2.82542e-03  1.74946e-03  1.89241e-02
       H -1.45443e-02 -8.93434e-03 -9.57939e-03
       O -1.84232e-04  1.31503e-02 -9.20064e-03
       H -5.77804e-05  3.60899e-03  1.92317e-02
       H  5.26237e-05 -1.69537e-02 -9.94270e-03
       O -9.09581e-04  1.39036e-02 -1.02046e-02
       H -1.74802e-02 -6.89592e-03  5.19335e-03
       H  1.77506e-02 -6.71235e-03  4.65804e-03
       O  4.74938e-04  1.35607e-02  1.08906e-02
       H -1.72983e-04  3.84204e-03 -1.90278e-02
       H -1.13784e-04 -1.71469e-02  9.35874e-03
       O  1.15818e-02  7.01713e-03 -1.07423e-02
       H  3.30234e-03  1.87730e-03  1.90485e-02
       H -1.47632e-02 -8.61170e-03 -9.51960e-03
       O  1.26031e-02  5.86397e-03  9.77923e-03
       H -1.46013e-02  1.23043e-02 -4.49885e-03
       H  2.81698e-03 -1.87377e-02 -5.19581e-03
       O  1.46167e-04  1.36535e-02 -9.84842e-03
       H -1.78296e-02 -6.32650e-03  5.36374e-03
       H  1.76413e-02 -6.96433e-03  4.43439e-03
       O -2.21454e-04  1.41036e-02  9.98908e-03
       H -1.70801e-04  3.48114e-03 -1.90274e-02
       H  4.13290e-04 -1.68009e-02  9.76062e-03
       O -1.29072e-02  6.32904e-03 -9.27249e-03
       H -2.68845e-03  1.79858e-03  1.91762e-02
       H  1.49932e-02 -7.99914e-03 -9.87232e-03
       O -1.20735e-02  7.15249e-03  1.01676e-02
       H -3.23657e-03 -1.83908e-02 -5.35130e-03
       H  1.50898e-02  1.16208e-02 -4.70964e-03
       O -1.17567e-02 -7.25754e-03 -9.21813e-03
       H  1.47194e-02 -1.18594e-02  5.05025e-03
       H -2.86428e-03  1.87852e-02  4.44957e-03
       O  1.16798e-02  7.28400e-03 -9.22166e-03
       H -1.47887e-02  1.18063e-02  4.99277e-03
       H  2.89397e-03 -1.87920e-02  4.48030e-03
       O  1.15864e-02  7.45373e-03 -1.05662e-02
       H  3.26340e-03  1.44749e-03  1.91124e-02
       H -1.47992e-02 -8.66176e-03 -9.35424e-03
       O  1.28483e-02 -6.36755e-03 -9.27299e-03
       H  2.72547e-03 -1.75388e-03  1.92289e-02
       H -1.50087e-02  8.01717e-03 -9.88823e-03
       O  1.13616e-02 -7.99414e-03 -1.03043e-02
       H -1.49847e-02 -1.14644e-02  5.19636e-03
       H  3.15451e-03  1.86192e-02  4.65142e-03
       O  1.19260e-02  7.61507e-03 -1.01832e-02
       H -1.46106e-02  1.16797e-02  4.63316e-03
       H  3.21570e-03 -1.86739e-02  4.85819e-03
       O -1.26220e-03 -1.41735e-02 -9.38033e-03
       H  3.37537e-04 -3.27119e-03  1.92632e-02
       H  6.41812e-04  1.68863e-02 -9.81358e-03
       O -1.26175e-02 -6.00763e-03 -8.97976e-03
       H -2.79478e-03 -1.80731e-03  1.91550e-02
       H  1.48230e-02  7.99620e-03 -9.97049e-03
       O -1.25623e-02 -6.71078e-03 -9.40231e-03
       H  1.50671e-02 -1.17816e-02  4.58203e-03
       H -2.75015e-03  1.85286e-02  5.09853e-03
       O  1.21834e-02 -6.06661e-03  1.01827e-02
       H  2.91272e-03 -2.15780e-03 -1.92142e-02
       H -1.48588e-02  8.53312e-03  9.65774e-03
       O  1.25032e-02 -7.31590e-03  8.94869e-03
       H -1.49260e-02 -1.19404e-02 -4.60797e-03
       H  2.88022e-03  1.87020e-02 -4.30887e-03
       O  1.24409e-04 -1.34520e-02  1.01870e-02
       H -1.77397e-02  6.42650e-03 -5.27783e-03
       H  1.76008e-02  6.87004e-03 -4.68762e-03
       O -1.23326e-02  6.97340e-03  1.00037e-02
       H -2.63144e-03  1.94231e-03 -1.90186e-02
       H  1.47175e-02 -8.73689e-03  9.38490e-03
       O -5.65238e-04 -1.41199e-02 -9.49371e-03
       H -1.78155e-02  6.71914e-03  4.34696e-03
       H  1.79569e-02  6.30880e-03  4.57857e-03
       O  1.26879e-02 -6.40620e-03  1.01621e-02
       H -1.43834e-02 -1.22352e-02 -4.74259e-03
       H  2.69569e-03  1.86971e-02 -4.64352e-03
       O -1.37256e-04  1.30081e-02 -1.07499e-02
       H -8.09063e-05  4.04555e-03  1.90008e-02
       H  8.75729e-05 -1.69770e-02 -9.39523e-03
       O -1.14176e-02  7.81734e-03  8.88129e-03
       H -3.04877e-03  1.58087e-03 -1.91200e-02
       H  1.43143e-02 -8.79919e-03  1.00812e-02
       O  1.18346e-02 -7.89807e-03  9.34937e-03
       H  2.75102e-03 -1.40589e-03 -1.92211e-02
       H -1.45435e-02  8.96211e-03  9.65101e-03
       O -7.83615e-05  1.33581e-02  1.02104e-02
       H -1.75334e-02 -6.95053e-03 -4.48614e-03
       H  1.76656e-02 -6.44552e-03 -5.22015e-03
       O -1.28839e-02  7.42098e-03  9.32085e-03
       H -2.66000e-03 -1.88288e-02 -4.56890e-03
       H  1.49846e-02  1.17374e-02 -4.62427e-03
       O -1.23092e-02  6.19093e-03  1.04374e-02
       H -2.73164e-03  2.05212e-03 -1.90305e-02
       H  1.48749e-02 -8.49926e-03  9.35399e-03
       O  1.26240e-02  5.98221e-03 -1.01185e-02
       H -1.47416e-02  1.20731e-02  4.81926e-03
       H  2.69885e-03 -1.84725e-02  5.19516e-03
       O  1.25781e-02  5.99991e-03 -8.99523e-03
       H  2.81139e-03  1.78552e-03  1.91906e-02
       H -1.48130e-02 -7.90822e-03 -9.94788e-03
       O  1.39443e-04  1.41904e-02 -9.97629e-03
       H  1.69848e-04  3.48591e-03  1.90122e-02
       H -4.31436e-04 -1.68097e-02 -9.65714e-03
       O -1.20214e-02 -7.54215e-03 -1.01241e-02
       H  1.47088e-02 -1.17908e-02  4.68187e-03
       H -3.14750e-03  1.86429e-02  4.69981e-03
       O -3.01667e-04  1.52226e-02  9.26909e-03
       H  1.01474e-04  2.91471e-03 -1.90754e-02
       H  8.10418e-05 -1.69905e-02  9.88988e-03
       O  1.16770e-02 -7.72078e-03  9.76864e-03
       H -1.45884e-02 -1.20136e-02 -4.55718e-03
       H  3.53109e-03  1.87723e-02 -4.43371e-03
       O -1.24096e-02  6.84417e-03  9.53293e-03
       H -2.87246e-03 -1.87589e-02 -5.07493e-03
       H  1.50467e-02  1.18186e-02 -4.59283e-03
       O -1.19700e-02  5.38521e-03  1.00051e-02
       H -3.00486e-03  2.53811e-03 -1.91404e-02
       H  1.48664e-02 -8.27486e-03  9.70207e-03
       O -8.33653e-04 -1.42071e-02 -1.01449e-02
       H -1.75792e-02  6.95566e-03  4.62372e-03
       H  1.78091e-02  6.33803e-03  4.75778e-03
       O  1.66297e-04 -1.31487e-02 -9.27566e-03
       H -3.99935e-05 -3.63766e-03  1.93248e-02
       H -7.78899e-05  1.69182e-02 -9.94574e-03
       O -1.06348e-03  1.38529e-02 -8.92422e-03
       H  1.02458e-04  3.36492e-03  1.90828e-02
       H  5.25499e-04 -1.67762e-02 -9.98215e-03
       O  6.42761e-04  1.47147e-02 -1.02430e-02
       H -1.76568e-02 -6.61775e-03  4.81449e-03
       H  1.74613e-02 -7.18039e-03  4.73515e-03
       O  1.12754e-02 -6.43370e-03  1.07955e-02
       H  3.61519e-03 -1.96011e-03 -1.90373e-02
       H -1.47500e-02  8.43540e-03  9.43278e-03
       O  1.14228e-02  6.51737e-03 -9.17250e-03
       H  3.12708e-03  1.76035e-03  1.93119e-02
       H -1.46651e-02 -8.40684e-03 -9.96536e-03
       O -1.26757e-02  6.66580e-03  9.50174e-03
       H -2.99691e-03 -1.88684e-02 -4.42900e-03
       H  1.45534e-02  1.23903e-02 -4.52699e-03
       O -1.24321e-02 -7.95369e-03 -1.03266e-02
       H  1.49992e-02 -1.15465e-02  4.70391e-03
       H -3.13951e-03  1.85951e-02  4.98508e-03
       O  1.27536e-02  7.16322e-03 -8.76809e-03
       H -1.48743e-02  1.18736e-02  4.22189e-03
       H  2.85140e-03 -1.88892e-02  4.45584e-03
       O  1.19792e-02 -7.62411e-03  1.02309e-02
       H -1.46609e-02 -1.17361e-02 -4.70259e-03
       H  3.13001e-03  1.87211e-02 -4.74979e-03
       O -1.12303e-02 -7.59701e-03 -1.04602e-02
       H -3.35351e-03 -1.28282e-03  1.90825e-02
       H  1.48189e-02  8.75655e-03 -9.26785e-03
       O -1.26093e-02  5.96435e-03  9.00176e-03
       H -2.82118e-03  1.82606e-03 -1.91961e-02
       H  1.48949e-02 -7.96340e-03  1.00048e-02
       O  1.20487e-02 -7.63117e-03  9.37688e-03
       H  2.90085e-03 -1.50548e-03 -1.92617e-02
       H -1.45184e-02  8.86142e-03  9.84497e-03
       O -1.09704e-03  1.37101e-02  9.93222e-03
       H -1.75798e-02 -6.88699e-03 -5.15669e-03
       H  1.78438e-02 -6.60414e-03 -4.44115e-03
       O  1.16754e-02  7.13790e-03  9.33994e-03
       H -1.47573e-02  1.19890e-02 -5.10402e-03
       H  2.97397e-03 -1.87304e-02 -4.47843e-03
       O  1.17620e-02  7.17614e-03  1.11616e-02
       H  3.30906e-03  1.60418e-03 -1.89503e-02
       H -1.48590e-02 -8.68804e-03  9.19196e-03
       O  1.22384e-02  6.42461e-03 -8.97229e-03
       H -1.48346e-02  1.20213e-02  4.31806e-03
       H  2.98852e-03 -1.87190e-02  5.06796e-03
       O  1.22556e-02 -7.63733e-03  9.89145e-03
       H -1.48507e-02 -1.17818e-02 -4.41796e-03
       H  3.31324e-03  1.86975e-02 -4.78575e-03
       O  3.15390e-04  1.41696e-02 -9.97084e-03
       H -3.36943e-04  3.58874e-03  1.90855e-02
       H  2.32692e-04 -1.69103e-02 -9.75953e-03
       O -1.07788e-02  7.53596e-03  1.00525e-02
       H -3.49776e-03  1.49593e-03 -1.91662e-02
       H  1.46474e-02 -8.71076e-03  9.61287e-03
       O  1.17518e-02 -7.98836e-03  9.28675e-03
       H  2.75880e-03 -1.42076e-03 -1.91537e-02
       H -1.45020e-02  8.95372e-03  9.67939e-03
       O  5.94222e-04  1.39623e-02  9.76309e-03
       H -1.77781e-02 -6.26046e-03 -4.66530e-03
       H  1.76629e-02 -6.91484e-03 -4.34577e-03
       O -1.25613e-02  7.05633e-03  9.28249e-03
       H -2.80782e-03 -1.88529e-02 -4.59769e-03
       H  1.47555e-02  1.20045e-02 -4.51883e-03
       O  1.19577e-04 -1.38689e-02  9.73337e-03
       H  4.67681e-04 -3.59634e-03 -1.90612e-02
       H -5.16904e-04  1.68731e-02  9.74767e-03
       O -1.19124e-02  7.77549e-03 -9.82501e-03
       H -3.44875e-03 -1.85487e-02  4.54330e-03
       H  1.47444e-02  1.18556e-02  4.69970e-03
       O -1.28809e-02 -6.49249e-03  9.91029e-03
       H  1.44413e-02 -1.21604e-02 -4.65118e-03
       H -2.68521e-03  1.87284e-02 -4.69936e-03
       O  1.20995e-02 -6.71189e-03 -9.65887e-03
       H  2.82764e-03 -2.14661e-03  1.90558e-02
       H -1.44256e-02  8.68445e-03 -9.77250e-03
       O  1.18038e-02  7.08674e-03  9.63669e-03
       H  3.35884e-03  1.40895e-03 -1.90658e-02
       H -1.47010e-02 -8.16278e-03  9.85156e-03
       O -1.20928e-02 -7.57800e-03  9.29462e-03
       H -2.92707e-03 -1.55849e-03 -1.92897e-02
       H  1.44961e-02  8.82753e-03  9.96869e-03
       O -1.19896e-02  6.47613e-03 -1.13742e-02
       H -3.20565e-03  2.16298e-03  1.90356e-02
       H  1.49863e-02 -8.49043e-03 -9.16781e-03
       O -1.17018e-02  7.30675e-03  9.31289e-03
       H -2.88130e-03 -1.88200e-02 -4.55539e-03
       H  1.47612e-02  1.18539e-02 -5.05306e-03
       O -1.11155e-02 -7.89842e-03 -9.90251e-03
       H  1.46762e-02 -1.17563e-02  5.10989e-03
       H -3.32777e-03  1.87873e-02  4.39164e-03
       O -7.18342e-05  1.31839e-02  9.25061e-03
       H -8.39890e-05  3.60283e-03 -1.92403e-02
       H -2.20567e-05 -1.70061e-02  9.91190e-03
       O -3.02984e-04  1.42862e-02  9.31740e-03
       H -1.75425e-02 -6.88576e-03 -5.15410e-03
       H  1.76359e-02 -7.03378e-03 -4.65384e-03
       O  7.89694e-04 -1.42960e-02  1.01543e-02
       H -1.78605e-02  6.32723e-03 -4.75098e-03
       H  1.75400e-02  7.08135e-03 -4.59736e-03
       O  1.28303e-02  7.82893e-03  9.01683e-03
       H  2.64276e-03  1.52448e-03 -1.90764e-02
       H -1.45575e-02 -8.56023e-03  1.00274e-02
       O  1.25426e-02  6.50652e-03 -9.43620e-03
       H -1.44447e-02  1.23861e-02  4.47835e-03
       H  3.02205e-03 -1.87838e-02  4.32335e-03
       O  7.57868e-04  1.42291e-02  1.00275e-02
       H -1.77317e-02 -6.35994e-03 -4.63117e-03
       H  1.76042e-02 -6.86926e-03 -4.76340e-03
       O -1.12819e-02 -6.64982e-03 -1.07970e-02
       H -3.46362e-03 -2.06937e-03  1.90680e-02
       H  1.46202e-02  8.60663e-03 -9.38846e-03
       O  1.96200e-04 -1.38461e-02  9.57059e-03
       H -3.88680e-04 -3.53056e-03 -1.90743e-02
       H  4.05485e-04  1.68620e-02  9.80885e-03
       O -1.25348e-02  7.37273e-03 -8.86413e-03
       H -2.86214e-03 -1.86772e-02  4.20294e-03
       H  1.49124e-02  1.19016e-02  4.60611e-03
       O -1.28476e-02  7.38182e-03 -9.02369e-03
       H -2.54468e-03  1.51402e-03  1.89989e-02
       H  1.45710e-02 -8.40519e-03 -9.81291e-03
       O  1.21612e-02 -5.94741e-03 -1.03492e-02
       H  2.76139e-03 -2.21593e-03  1.90888e-02
       H -1.50899e-02  8.54724e-03 -9.28142e-03