288
# CELL(abcABC):   25.55133    29.50414    27.81677    90.00000    90.00000    90.00000  Step:           0  Bead:       0 forces{atomic_unit}  cell{atomic_unit}
       O  1.24807e-02 -7.11361e-03  9.90329e-03
       H  2.96257e-03 -1.45823e-03 -1.90452e-02
       H -1.48766e-02  8.21405e-03  9.69160e-03
       O  1.23764e-02  7.15257e-03 -9.95308e-03
       H  2.77147e-03  1.80961e-03  1.90929e-02
       H -1.45931e-02 -8.69008e-03 -9.67964e-03
       O  1.18696e-02  6.64119e-03  1.00255e-02
       H -1.44502e-02  1.21621e-02 -5.19759e-03
       H  2.88823e-03 -1.87478e-02 -4.57234e-03
       O  1.61574e-04  1.36874e-02 -1.00703e-02
       H -1.77008e-02 -6.49364e-03  5.19835e-03
       H  1.76666e-02 -6.99919e-03  4.64666e-03
       O -1.12641e-05  1.42369e-02  9.98940e-03
       H -1.65284e-04  3.30874e-03 -1.90571e-02
       H  2.33421e-04 -1.69446e-02  9.64644e-03
       O -1.24696e-02  7.10992e-03 -9.90754e-03
       H -2.95443e-03  1.46249e-03  1.90516e-02
       H  1.48653e-02 -8.19726e-03 -9.67941e-03
       O -1.17875e-02  7.04859e-03  1.00687e-02
       H -3.22304e-03 -1.86129e-02 -5.21330e-03
       H  1.48960e-02  1.17679e-02 -4.65923e-03
       O -1.19095e-02 -6.64652e-03 -1.00292e-02
       H  1.44754e-02 -1.21720e-02  5.20745e-03
       H -2.88584e-03  1.87492e-02  4.57229e-03
       O  1.17272e-02  7.15682e-03 -9.33092e-03
       H -1.47403e-02  1.19915e-02  4.88979e-03
       H  2.88856e-03 -1.88350e-02  4.43633e-03
       O  1.24662e-02  7.39550e-03 -1.02467e-02
       H  2.67223e-03  1.83223e-03  1.89862e-02
       H -1.46381e-02 -8.87348e-03 -9.52152e-03
       O  1.32796e-02 -7.44379e-03 -9.28230e-03
       H  2.49367e-03 -1.53555e-03  1.90949e-02
       H -1.47380e-02  8.42109e-03 -9.85231e-03
       O  2.96732e-04  1.35749e-02 -1.01780e-02
       H -1.78271e-02 -6.40710e-03  5.15415e-03
       H  1.76330e-02 -7.02125e-03  4.53885e-03
       O -6.12008e-05  1.50737e-02  8.98268e-03
       H  1.02761e-04  2.97697e-03 -1.91193e-02
       H  3.00030e-05 -1.68545e-02  9.98960e-03
       O -1.17538e-02 -7.14783e-03  9.33906e-03
       H  1.47667e-02 -1.20172e-02 -4.90425e-03
       H -2.88506e-03  1.88353e-02 -4.43781e-03
       O -1.21835e-02  6.60201e-03  9.17338e-03
       H -2.96398e-03 -1.87904e-02 -4.96366e-03
       H  1.47789e-02  1.19989e-02 -4.50669e-03
       O -1.32532e-02  7.45567e-03  9.28234e-03
       H -2.49475e-03  1.53215e-03 -1.90982e-02
       H  1.47250e-02 -8.41798e-03  9.84522e-03
       O -3.04687e-04 -1.35735e-02 -1.01786e-02
       H -1.76286e-02  7.01647e-03  4.53586e-03
       H  1.78317e-02  6.41061e-03  5.15401e-03
       O -1.32801e-02  7.44389e-03 -9.28103e-03
       H -2.49192e-03  1.53381e-03  1.90887e-02
       H  1.47394e-02 -8.42029e-03 -9.84669e-03
       O -1.24634e-02 -7.39543e-03 -1.02496e-02
       H -2.67415e-03 -1.83151e-03  1.89923e-02
       H  1.46365e-02  8.87217e-03 -9.52528e-03
       O -1.17283e-02 -7.15655e-03 -9.33031e-03
       H  1.47409e-02 -1.19904e-02  4.89095e-03
       H -2.88773e-03  1.88347e-02  4.43695e-03
       O  1.19025e-02  6.65115e-03 -1.00285e-02
       H -1.44715e-02  1.21674e-02  5.19989e-03
       H  2.88650e-03 -1.87495e-02  4.57158e-03
       O  1.17827e-02 -7.05039e-03  1.00682e-02
       H -1.48905e-02 -1.17666e-02 -4.65662e-03
       H  3.22084e-03  1.86141e-02 -5.20822e-03
       O  1.24638e-02 -7.10511e-03 -9.91177e-03
       H  2.95498e-03 -1.46524e-03  1.90571e-02
       H -1.48606e-02  8.19290e-03 -9.67882e-03
       O  1.35625e-05 -1.42372e-02  9.99231e-03
       H  1.63331e-04 -3.30951e-03 -1.90627e-02
       H -2.34695e-04  1.69456e-02  9.64691e-03
       O -1.72167e-04 -1.36931e-02 -1.00763e-02
       H -1.76649e-02  6.99791e-03  4.64545e-03
       H  1.77100e-02  6.50319e-03  5.19805e-03
       O -1.18701e-02 -6.64346e-03  1.00284e-02
       H  1.44530e-02 -1.21600e-02 -5.19287e-03
       H -2.88812e-03  1.87481e-02 -4.57216e-03
       O -1.23752e-02 -7.15352e-03 -9.95506e-03
       H -2.77400e-03 -1.80884e-03  1.90983e-02
       H  1.45932e-02  8.69159e-03 -9.68087e-03
       O -1.24831e-02  7.11264e-03  9.90562e-03
       H -2.96204e-03  1.46047e-03 -1.90521e-02
       H  1.48792e-02 -8.21371e-03  9.69241e-03
       O  1.32423e-02 -7.44865e-03  9.28372e-03
       H  2.49422e-03 -1.53125e-03 -1.90920e-02
       H -1.47163e-02  8.41126e-03  9.83727e-03
       O  1.21823e-02 -6.59702e-03  9.17116e-03
       H -1.47772e-02 -1.19978e-02 -4.50541e-03
       H  2.96326e-03  1.87849e-02 -4.95730e-03
       O  1.17445e-02  7.16140e-03  9.33704e-03
       H -1.47575e-02  1.20113e-02 -4.90113e-03
       H  2.88438e-03 -1.88429e-02 -4.44113e-03
       O  6.29395e-05 -1.50676e-02  8.98645e-03
       H -1.04274e-04 -2.97891e-03 -1.91250e-02
       H -3.07144e-05  1.68482e-02  9.98983e-03
       O -1.22487e-02  6.61541e-03 -9.21332e-03
       H -2.88162e-03 -1.87643e-02  4.95703e-03
       H  1.48592e-02  1.19142e-02  4.56896e-03
       O  7.45539e-05 -1.43025e-02 -9.93397e-03
       H  2.03153e-04 -3.29609e-03  1.90082e-02
       H -3.28324e-04  1.69528e-02 -9.65759e-03
       O  6.86205e-07  1.50001e-02 -9.04187e-03
       H  1.42473e-04  2.99338e-03  1.91736e-02
       H -6.25601e-05 -1.68374e-02 -9.97833e-03
       O  1.17158e-02 -7.03307e-03 -1.00216e-02
       H -1.48028e-02 -1.18484e-02  4.59296e-03
       H  3.30285e-03  1.86328e-02  5.21159e-03
       O -1.23450e-02 -7.13192e-03  9.97544e-03
       H -2.78501e-03 -1.80005e-03 -1.90515e-02
       H  1.45885e-02  8.68910e-03  9.65943e-03
       O  2.03385e-04  1.37337e-02  1.00589e-02
       H -1.77204e-02 -6.51262e-03 -5.20141e-03
       H  1.76387e-02 -7.00919e-03 -4.65847e-03
       O -2.05932e-04 -1.37391e-02  1.00606e-02
       H -1.76398e-02  7.01253e-03 -4.66050e-03
       H  1.77234e-02  6.51309e-03 -5.20846e-03
       O  1.23435e-02  7.13331e-03  9.97756e-03
       H  2.78755e-03  1.79916e-03 -1.90570e-02
       H -1.45888e-02 -8.69067e-03  9.66068e-03
       O -1.17177e-02  7.03175e-03 -1.00242e-02
       H -3.30040e-03 -1.86347e-02  5.20673e-03
       H  1.48036e-02  1.18498e-02  4.59291e-03
       O -1.83359e-06 -1.49990e-02 -9.04170e-03
       H -1.41065e-04 -2.99029e-03  1.91680e-02
       H  6.31035e-05  1.68357e-02 -9.97490e-03
       O -7.72719e-05  1.43029e-02 -9.93559e-03
       H -2.00966e-04  3.29777e-03  1.90137e-02
       H  3.30039e-04 -1.69543e-02 -9.65925e-03
       O  1.22462e-02 -6.61441e-03 -9.21074e-03
       H -1.48574e-02 -1.19138e-02  4.56883e-03
       H  2.88302e-03  1.87624e-02  4.96035e-03
       O -1.24945e-02 -7.41436e-03  1.02245e-02
       H -2.65980e-03 -1.84082e-03 -1.90293e-02
       H  1.46384e-02  8.87297e-03  9.54161e-03
       O  2.61642e-04  1.35217e-02  1.01886e-02
       H -1.78041e-02 -6.39310e-03 -5.14396e-03
       H  1.76495e-02 -7.00191e-03 -4.52148e-03
       O -2.65268e-04 -1.35237e-02  1.01881e-02
       H -1.76490e-02  7.00338e-03 -4.52241e-03
       H  1.78055e-02  6.39335e-03 -5.14673e-03
       O  1.24964e-02  7.41574e-03  1.02267e-02
       H  2.66145e-03  1.83970e-03 -1.90355e-02
       H -1.46406e-02 -8.87407e-03  9.54623e-03
       O  1.24811e-02 -7.11388e-03  9.90319e-03
       H  2.96253e-03 -1.45817e-03 -1.90465e-02
       H -1.48771e-02  8.21433e-03  9.69153e-03
       O  1.23762e-02  7.15244e-03 -9.95323e-03
       H  2.77148e-03  1.80961e-03  1.90931e-02
       H -1.45929e-02 -8.68998e-03 -9.67949e-03
       O  1.18695e-02  6.64105e-03  1.00239e-02
       H -1.44500e-02  1.21620e-02 -5.19752e-03
       H  2.88823e-03 -1.87475e-02 -4.57227e-03
       O  1.61645e-04  1.36874e-02 -1.00705e-02
       H -1.77009e-02 -6.49368e-03  5.19844e-03
       H  1.76666e-02 -6.99918e-03  4.64669e-03
       O -1.12976e-05  1.42368e-02  9.98943e-03
       H -1.65274e-04  3.30877e-03 -1.90571e-02
       H  2.33443e-04 -1.69445e-02  9.64641e-03
       O -1.24696e-02  7.10989e-03 -9.90755e-03
       H -2.95443e-03  1.46250e-03  1.90517e-02
       H  1.48653e-02 -8.19723e-03 -9.67940e-03
       O -1.17875e-02  7.04861e-03  1.00686e-02
       H -3.22305e-03 -1.86129e-02 -5.21328e-03
       H  1.48960e-02  1.17679e-02 -4.65923e-03
       O -1.19095e-02 -6.64652e-03 -1.00292e-02
       H  1.44754e-02 -1.21720e-02  5.20745e-03
       H -2.88584e-03  1.87492e-02  4.57229e-03
       O  1.17272e-02  7.15682e-03 -9.33092e-03
       H -1.47403e-02  1.19915e-02  4.88979e-03
       H  2.88856e-03 -1.88350e-02  4.43633e-03
       O  1.24662e-02  7.39551e-03 -1.02467e-02
       H  2.67223e-03  1.83223e-03  1.89862e-02
       H -1.46381e-02 -8.87349e-03 -9.52152e-03
       O  1.32796e-02 -7.44379e-03 -9.28229e-03
       H  2.49367e-03 -1.53555e-03  1.90949e-02
       H -1.47380e-02  8.42109e-03 -9.85231e-03
       O  2.96730e-04  1.35749e-02 -1.01780e-02
       H -1.78271e-02 -6.40710e-03  5.15415e-03
       H  1.76330e-02 -7.02125e-03  4.53885e-03
       O -6.12875e-05  1.50738e-02  8.98270e-03
       H  1.02778e-04  2.97695e-03 -1.91193e-02
       H  3.00125e-05 -1.68545e-02  9.98960e-03
       O -1.17538e-02 -7.14756e-03  9.33895e-03
       H  1.47668e-02 -1.20173e-02 -4.90428e-03
       H -2.88502e-03  1.88351e-02 -4.43769e-03
       O -1.21835e-02  6.60200e-03  9.17335e-03
       H -2.96398e-03 -1.87904e-02 -4.96366e-03
       H  1.47789e-02  1.19989e-02 -4.50669e-03
       O -1.32532e-02  7.45556e-03  9.28216e-03
       H -2.49475e-03  1.53210e-03 -1.90980e-02
       H  1.47250e-02 -8.41797e-03  9.84525e-03
       O -3.04807e-04 -1.35735e-02 -1.01785e-02
       H -1.76285e-02  7.01645e-03  4.53584e-03
       H  1.78317e-02  6.41062e-03  5.15402e-03
       O -1.32801e-02  7.44388e-03 -9.28104e-03
       H -2.49191e-03  1.53381e-03  1.90888e-02
       H  1.47394e-02 -8.42029e-03 -9.84668e-03
       O -1.24634e-02 -7.39543e-03 -1.02496e-02
       H -2.67417e-03 -1.83151e-03  1.89923e-02
       H  1.46365e-02  8.87216e-03 -9.52528e-03
       O -1.17283e-02 -7.15655e-03 -9.33031e-03
       H  1.47409e-02 -1.19904e-02  4.89095e-03
       H -2.88773e-03  1.88347e-02  4.43695e-03
       O  1.19025e-02  6.65115e-03 -1.00285e-02
       H -1.44715e-02  1.21674e-02  5.19989e-03
       H  2.88650e-03 -1.87495e-02  4.57158e-03
       O  1.17827e-02 -7.05040e-03  1.00682e-02
       H -1.48905e-02 -1.17665e-02 -4.65662e-03
       H  3.22084e-03  1.86141e-02 -5.20822e-03
       O  1.24638e-02 -7.10511e-03 -9.91177e-03
       H  2.95499e-03 -1.46524e-03  1.90571e-02
       H -1.48606e-02  8.19290e-03 -9.67882e-03
       O  1.35646e-05 -1.42372e-02  9.99230e-03
       H  1.63331e-04 -3.30951e-03 -1.90627e-02
       H -2.34695e-04  1.69456e-02  9.64691e-03
       O -1.72167e-04 -1.36931e-02 -1.00763e-02
       H -1.76649e-02  6.99791e-03  4.64545e-03
       H  1.77100e-02  6.50319e-03  5.19805e-03
       O -1.18701e-02 -6.64346e-03  1.00284e-02
       H  1.44530e-02 -1.21600e-02 -5.19287e-03
       H -2.88812e-03  1.87481e-02 -4.57216e-03
       O -1.23752e-02 -7.15351e-03 -9.95506e-03
       H -2.77400e-03 -1.80884e-03  1.90983e-02
       H  1.45932e-02  8.69159e-03 -9.68087e-03
       O -1.24831e-02  7.11264e-03  9.90562e-03
       H -2.96204e-03  1.46048e-03 -1.90521e-02
       H  1.48792e-02 -8.21371e-03  9.69241e-03
       O  1.32423e-02 -7.44865e-03  9.28372e-03
       H  2.49422e-03 -1.53125e-03 -1.90920e-02
       H -1.47163e-02  8.41125e-03  9.83727e-03
       O  1.21823e-02 -6.59700e-03  9.17115e-03
       H -1.47772e-02 -1.19978e-02 -4.50541e-03
       H  2.96328e-03  1.87849e-02 -4.95729e-03
       O  1.17445e-02  7.16139e-03  9.33704e-03
       H -1.47575e-02  1.20113e-02 -4.90113e-03
       H  2.88438e-03 -1.88429e-02 -4.44113e-03
       O  6.29400e-05 -1.50676e-02  8.98644e-03
       H -1.04272e-04 -2.97891e-03 -1.91250e-02
       H -3.07158e-05  1.68482e-02  9.98983e-03
       O -1.22486e-02  6.61544e-03 -9.21329e-03
       H -2.88164e-03 -1.87643e-02  4.95703e-03
       H  1.48591e-02  1.19141e-02  4.56893e-03
       O  7.47251e-05 -1.43026e-02 -9.93405e-03
       H  2.03142e-04 -3.29610e-03  1.90084e-02
       H -3.28342e-04  1.69530e-02 -9.65762e-03
       O  6.68112e-07  1.50001e-02 -9.04190e-03
       H  1.42491e-04  2.99338e-03  1.91737e-02
       H -6.25555e-05 -1.68374e-02 -9.97832e-03
       O  1.17157e-02 -7.03301e-03 -1.00218e-02
       H -1.48028e-02 -1.18484e-02  4.59299e-03
       H  3.30286e-03  1.86328e-02  5.21162e-03
       O -1.23449e-02 -7.13203e-03  9.97546e-03
       H -2.78502e-03 -1.80003e-03 -1.90515e-02
       H  1.45885e-02  8.68913e-03  9.65943e-03
       O  2.03393e-04  1.37337e-02  1.00589e-02
       H -1.77204e-02 -6.51261e-03 -5.20141e-03
       H  1.76387e-02 -7.00917e-03 -4.65846e-03
       O -2.05941e-04 -1.37390e-02  1.00605e-02
       H -1.76398e-02  7.01253e-03 -4.66050e-03
       H  1.77234e-02  6.51309e-03 -5.20845e-03
       O  1.23435e-02  7.13331e-03  9.97756e-03
       H  2.78755e-03  1.79916e-03 -1.90570e-02
       H -1.45888e-02 -8.69067e-03  9.66068e-03
       O -1.17177e-02  7.03175e-03 -1.00242e-02
       H -3.30040e-03 -1.86347e-02  5.20673e-03
       H  1.48036e-02  1.18498e-02  4.59291e-03
       O -1.83223e-06 -1.49990e-02 -9.04171e-03
       H -1.41066e-04 -2.99029e-03  1.91680e-02
       H  6.30987e-05  1.68356e-02 -9.97489e-03
       O -7.72717e-05  1.43029e-02 -9.93559e-03
       H -2.00967e-04  3.29776e-03  1.90137e-02
       H  3.30039e-04 -1.69543e-02 -9.65925e-03
       O  1.22462e-02 -6.61441e-03 -9.21074e-03
       H -1.48574e-02 -1.19138e-02  4.56883e-03
       H  2.88302e-03  1.87625e-02  4.96035e-03
       O -1.24944e-02 -7.41427e-03  1.02245e-02
       H -2.65981e-03 -1.84084e-03 -1.90293e-02
       H  1.46383e-02  8.87289e-03  9.54158e-03
       O  2.61674e-04  1.35217e-02  1.01886e-02
       H -1.78041e-02 -6.39310e-03 -5.14396e-03
       H  1.76495e-02 -7.00192e-03 -4.52147e-03
       O -2.65272e-04 -1.35237e-02  1.01881e-02
       H -1.76490e-02  7.00338e-03 -4.52241e-03
       H  1.78055e-02  6.39336e-03 -5.14670e-03
       O  1.24964e-02  7.41574e-03  1.02267e-02
       H  2.66145e-03  1.83970e-03 -1.90355e-02
       H -1.46406e-02 -8.87407e-03  9.54624e-03
288
# CELL(abcABC):   25.55133    29.50414    27.81677    90.00000    90.00000    90.00000  Step:           1  Bead:       0 forces{atomic_unit}  cell{atomic_unit}
       O -4.14507e-03  2.47828e-03 -3.26979e-03
       H  4.12059e-03 -2.07677e-03 -6.32777e-04
       H  7.90196e-04 -8.74326e-04  4.68557e-03
       O -4.20046e-03 -2.40033e-03  3.31829e-03
       H  3.88149e-03  2.50308e-03  6.17986e-04
       H  1.06885e-03  2.94747e-04 -4.69101e-03
       O -4.52628e-03 -2.56632e-03 -3.20913e-03
       H  1.07808e-03  4.40472e-03  1.51124e-03
       H  3.89010e-03 -1.67267e-03  2.12207e-03
       O  2.52605e-06 -5.20762e-03  3.22816e-03
       H -3.22900e-03  3.10211e-03 -1.52380e-03
       H  3.32726e-03  2.47961e-03 -2.10390e-03
       O -2.21737e-05 -4.81269e-03 -3.30108e-03
       H -2.12566e-04  4.61623e-03 -5.87001e-04
       H  2.83731e-04  1.04096e-03  4.68145e-03
       O  4.13865e-03 -2.47243e-03  3.27707e-03
       H -4.11301e-03  2.08131e-03  6.34549e-04
       H -7.81953e-04  8.81226e-04 -4.67829e-03
       O  4.49417e-03 -2.61035e-03 -3.24309e-03
       H -4.30143e-03 -1.22691e-03  1.53164e-03
       H -4.72254e-04  4.10423e-03  2.08241e-03
       O  4.51933e-03  2.54930e-03  3.22284e-03
       H -1.08516e-03 -4.40055e-03 -1.51569e-03
       H -3.89054e-03  1.67029e-03 -2.12490e-03
       O -4.39043e-03 -2.29733e-03  3.98389e-03
       H  4.89830e-04  4.33221e-03 -1.67558e-03
       H  3.87969e-03 -1.57123e-03 -2.26474e-03
       O -4.25110e-03 -2.25992e-03  3.19492e-03
       H  3.84696e-03  2.56583e-03  4.31994e-04
       H  1.08883e-03  1.96989e-04 -4.56971e-03
       O -3.91385e-03  2.41444e-03  3.62098e-03
       H  3.71099e-03 -2.18903e-03  9.93551e-04
       H  1.46751e-03 -9.01753e-04 -4.70287e-03
       O  7.55828e-07 -5.24918e-03  3.11591e-03
       H -3.28702e-03  3.17975e-03 -1.59354e-03
       H  3.36209e-03  2.39990e-03 -2.15857e-03
       O -9.90497e-06 -4.58091e-03 -3.66013e-03
       H  6.13791e-05  4.28928e-03 -1.16054e-03
       H  3.15876e-05  1.75354e-03  4.80644e-03
       O  4.40304e-03  2.28471e-03 -3.98875e-03
       H -5.01968e-04 -4.33894e-03  1.67486e-03
       H -3.87742e-03  1.57461e-03  2.26247e-03
       O  4.08063e-03 -2.65602e-03 -4.12668e-03
       H -3.97306e-03 -1.74313e-03  1.59870e-03
       H -6.63598e-04  4.21705e-03  2.18874e-03
       O  3.92655e-03 -2.39435e-03 -3.62768e-03
       H -3.71122e-03  2.18637e-03 -9.95793e-04
       H -1.46577e-03  8.97234e-04  4.70042e-03
       O  6.13887e-06  5.24900e-03  3.11383e-03
       H -3.36570e-03 -2.39920e-03 -2.15784e-03
       H  3.28537e-03 -3.17983e-03 -1.59636e-03
       O  3.91273e-03 -2.41382e-03  3.61813e-03
       H -3.70952e-03  2.18734e-03  9.92114e-04
       H -1.46505e-03  9.01706e-04 -4.69835e-03
       O  4.25206e-03  2.25977e-03  3.19793e-03
       H -3.84886e-03 -2.56499e-03  4.32692e-04
       H -1.08919e-03 -1.97600e-04 -4.57341e-03
       O  4.39116e-03  2.29803e-03  3.98523e-03
       H -4.90426e-04 -4.33089e-03 -1.67483e-03
       H -3.87900e-03  1.57042e-03 -2.26444e-03
       O -4.51596e-03 -2.55204e-03  3.21922e-03
       H  1.07923e-03  4.40089e-03 -1.51881e-03
       H  3.89083e-03 -1.66887e-03 -2.12618e-03
       O -4.49148e-03  2.61205e-03 -3.23949e-03
       H  4.70537e-04 -4.10629e-03  2.08188e-03
       H  4.29874e-03  1.22833e-03  1.53623e-03
       O -4.13618e-03  2.47212e-03  3.28184e-03
       H  4.11329e-03 -2.08380e-03  6.34183e-04
       H  7.79105e-04 -8.80917e-04 -4.68015e-03
       O  2.35579e-05  4.81367e-03 -3.30377e-03
       H  2.10666e-04 -4.61719e-03 -5.87524e-04
       H -2.84852e-04 -1.04137e-03  4.68180e-03
       O  4.71640e-06  5.20827e-03  3.22660e-03
       H -3.32971e-03 -2.47858e-03 -2.10373e-03
       H  3.22546e-03 -3.10117e-03 -1.53013e-03
       O  4.52459e-03  2.56612e-03 -3.20672e-03
       H -1.07444e-03 -4.40368e-03  1.51553e-03
       H -3.89017e-03  1.67194e-03  2.12310e-03
       O  4.20214e-03  2.40053e-03  3.32017e-03
       H -3.88422e-03 -2.50250e-03  6.19405e-04
       H -1.06974e-03 -2.93967e-04 -4.69186e-03
       O  4.14478e-03 -2.47931e-03 -3.27294e-03
       H -4.12019e-03  2.07909e-03 -6.35341e-04
       H -7.89176e-04  8.75278e-04  4.68598e-03
       O -3.92151e-03  2.39146e-03 -3.62891e-03
       H  3.71013e-03 -2.18490e-03 -9.92471e-04
       H  1.45898e-03 -8.94834e-04  4.69783e-03
       O -4.07934e-03  2.65228e-03 -4.12364e-03
       H  6.63416e-04 -4.21656e-03  2.18910e-03
       H  3.97155e-03  1.74677e-03  1.60130e-03
       O -4.39824e-03 -2.29377e-03 -3.98959e-03
       H  4.97071e-04  4.34082e-03  1.67187e-03
       H  3.87720e-03 -1.56856e-03  2.26413e-03
       O  1.10348e-05  4.57818e-03 -3.66523e-03
       H -6.29555e-05 -4.29077e-03 -1.16041e-03
       H -3.22364e-05 -1.75199e-03  4.80878e-03
       O  4.10237e-03 -2.62672e-03  4.13322e-03
       H -3.91455e-03 -1.72582e-03 -1.61245e-03
       H -6.49345e-04  4.13172e-03 -2.17290e-03
       O  6.31393e-05  4.80689e-03  3.25513e-03
       H  2.48489e-04 -4.60784e-03  6.05984e-04
       H -3.65781e-04 -1.08642e-03 -4.67548e-03
       O  2.99671e-05 -4.58418e-03  3.71218e-03
       H  9.94193e-05  4.30116e-03  1.14025e-03
       H -4.80960e-05  1.70776e-03 -4.81441e-03
       O -4.46487e-03  2.63922e-03  3.23341e-03
       H  4.87001e-04 -4.19180e-03 -2.09623e-03
       H  4.35601e-03  1.24608e-03 -1.52225e-03
       O  4.18805e-03  2.40282e-03 -3.29250e-03
       H -3.89280e-03 -2.49448e-03 -5.93143e-04
       H -1.04360e-03 -2.79435e-04  4.68442e-03
       O -9.59713e-06 -5.18519e-03 -3.24564e-03
       H -3.21695e-03  3.10622e-03  1.53686e-03
       H  3.31970e-03  2.46633e-03  2.08118e-03
       O  1.02658e-05  5.18664e-03 -3.24918e-03
       H -3.31772e-03 -2.46564e-03  2.08093e-03
       H  3.21409e-03 -3.10980e-03  1.53306e-03
       O -4.19003e-03 -2.40187e-03 -3.29511e-03
       H  3.89525e-03  2.49362e-03 -5.93974e-04
       H  1.04393e-03  2.78463e-04  4.68532e-03
       O  4.46460e-03 -2.63852e-03  3.23111e-03
       H -4.35372e-03 -1.24892e-03 -1.52666e-03
       H -4.87529e-04  4.19233e-03 -2.09708e-03
       O -3.13660e-05  4.58246e-03  3.70990e-03
       H -9.79820e-05 -4.29816e-03  1.13827e-03
       H  4.86217e-05 -1.70635e-03 -4.81231e-03
       O -6.57717e-05 -4.80810e-03  3.25733e-03
       H -2.46468e-04  4.60952e-03  6.07228e-04
       H  3.67181e-04  1.08657e-03 -4.67662e-03
       O -4.10357e-03  2.62774e-03  4.13456e-03
       H  6.49849e-04 -4.13187e-03 -2.17224e-03
       H  3.91569e-03  1.72484e-03 -1.60874e-03
       O  4.26169e-03  2.25736e-03 -3.22311e-03
       H -3.83680e-03 -2.57384e-03 -4.57249e-04
       H -1.11424e-03 -2.11521e-04  4.57716e-03
       O  5.38595e-06 -5.26745e-03 -3.09103e-03
       H -3.29664e-03  3.16939e-03  1.58742e-03
       H  3.37327e-03  2.41247e-03  2.17992e-03
       O -5.38974e-06  5.26750e-03 -3.09311e-03
       H -3.37293e-03 -2.41107e-03  2.17898e-03
       H  3.29511e-03 -3.17117e-03  1.58597e-03
       O -4.26427e-03 -2.25840e-03 -3.22481e-03
       H  3.83859e-03  2.57263e-03 -4.58314e-04
       H  1.11636e-03  2.13027e-04  4.58000e-03
       O -4.14488e-03  2.47809e-03 -3.27083e-03
       H  4.12051e-03 -2.07668e-03 -6.34610e-04
       H  7.89701e-04 -8.74044e-04  4.68529e-03
       O -4.20061e-03 -2.40042e-03  3.31825e-03
       H  3.88150e-03  2.50308e-03  6.18163e-04
       H  1.06901e-03  2.94809e-04 -4.69080e-03
       O -4.52604e-03 -2.56621e-03 -3.21174e-03
       H  1.07822e-03  4.40455e-03  1.51116e-03
       H  3.89003e-03 -1.67255e-03  2.12193e-03
       O  2.60669e-06 -5.20761e-03  3.22786e-03
       H -3.22909e-03  3.10207e-03 -1.52370e-03
       H  3.32722e-03  2.47963e-03 -2.10386e-03
       O -2.22309e-05 -4.81275e-03 -3.30108e-03
       H -2.12547e-04  4.61626e-03 -5.87069e-04
       H  2.83763e-04  1.04106e-03  4.68141e-03
       O  4.13862e-03 -2.47247e-03  3.27712e-03
       H -4.11301e-03  2.08132e-03  6.34513e-04
       H -7.81941e-04  8.81257e-04 -4.67829e-03
       O  4.49418e-03 -2.61029e-03 -3.24313e-03
       H -4.30144e-03 -1.22696e-03  1.53166e-03
       H -4.72248e-04  4.10423e-03  2.08242e-03
       O  4.51933e-03  2.54930e-03  3.22283e-03
       H -1.08516e-03 -4.40055e-03 -1.51568e-03
       H -3.89054e-03  1.67029e-03 -2.12489e-03
       O -4.39042e-03 -2.29734e-03  3.98388e-03
       H  4.89818e-04  4.33222e-03 -1.67557e-03
       H  3.87969e-03 -1.57122e-03 -2.26474e-03
       O -4.25110e-03 -2.25989e-03  3.19491e-03
       H  3.84696e-03  2.56582e-03  4.31997e-04
       H  1.08883e-03  1.96986e-04 -4.56971e-03
       O -3.91385e-03  2.41444e-03  3.62098e-03
       H  3.71099e-03 -2.18903e-03  9.93551e-04
       H  1.46751e-03 -9.01752e-04 -4.70287e-03
       O  7.54970e-07 -5.24919e-03  3.11591e-03
       H -3.28702e-03  3.17975e-03 -1.59354e-03
       H  3.36209e-03  2.39990e-03 -2.15857e-03
       O -1.00781e-05 -4.58087e-03 -3.66013e-03
       H  6.14060e-05  4.28926e-03 -1.16052e-03
       H  3.16050e-05  1.75357e-03  4.80644e-03
       O  4.40310e-03  2.28478e-03 -3.98887e-03
       H -5.01894e-04 -4.33899e-03  1.67485e-03
       H -3.87731e-03  1.57444e-03  2.26256e-03
       O  4.08062e-03 -2.65603e-03 -4.12671e-03
       H -3.97305e-03 -1.74314e-03  1.59869e-03
       H -6.63582e-04  4.21706e-03  2.18874e-03
       O  3.92655e-03 -2.39461e-03 -3.62784e-03
       H -3.71120e-03  2.18629e-03 -9.95624e-04
       H -1.46578e-03  8.97248e-04  4.70045e-03
       O  6.09196e-06  5.24902e-03  3.11384e-03
       H -3.36555e-03 -2.39919e-03 -2.15783e-03
       H  3.28540e-03 -3.17984e-03 -1.59637e-03
       O  3.91270e-03 -2.41384e-03  3.61812e-03
       H -3.70952e-03  2.18734e-03  9.92118e-04
       H -1.46508e-03  9.01716e-04 -4.69834e-03
       O  4.25206e-03  2.25975e-03  3.19793e-03
       H -3.84890e-03 -2.56499e-03  4.32703e-04
       H -1.08916e-03 -1.97583e-04 -4.57341e-03
       O  4.39115e-03  2.29804e-03  3.98522e-03
       H -4.90418e-04 -4.33090e-03 -1.67482e-03
       H -3.87900e-03  1.57042e-03 -2.26444e-03
       O -4.51596e-03 -2.55204e-03  3.21922e-03
       H  1.07924e-03  4.40089e-03 -1.51881e-03
       H  3.89084e-03 -1.66886e-03 -2.12618e-03
       O -4.49152e-03  2.61203e-03 -3.23950e-03
       H  4.70584e-04 -4.10626e-03  2.08190e-03
       H  4.29875e-03  1.22835e-03  1.53624e-03
       O -4.13619e-03  2.47212e-03  3.28184e-03
       H  4.11329e-03 -2.08380e-03  6.34183e-04
       H  7.79103e-04 -8.80917e-04 -4.68015e-03
       O  2.35622e-05  4.81367e-03 -3.30377e-03
       H  2.10666e-04 -4.61719e-03 -5.87520e-04
       H -2.84852e-04 -1.04138e-03  4.68180e-03
       O  4.71985e-06  5.20827e-03  3.22660e-03
       H -3.32971e-03 -2.47858e-03 -2.10373e-03
       H  3.22546e-03 -3.10117e-03 -1.53013e-03
       O  4.52459e-03  2.56612e-03 -3.20672e-03
       H -1.07444e-03 -4.40368e-03  1.51553e-03
       H -3.89017e-03  1.67193e-03  2.12310e-03
       O  4.20214e-03  2.40053e-03  3.32017e-03
       H -3.88422e-03 -2.50250e-03  6.19406e-04
       H -1.06974e-03 -2.93967e-04 -4.69186e-03
       O  4.14477e-03 -2.47931e-03 -3.27295e-03
       H -4.12019e-03  2.07909e-03 -6.35338e-04
       H -7.89171e-04  8.75277e-04  4.68598e-03
       O -3.92150e-03  2.39147e-03 -3.62890e-03
       H  3.71013e-03 -2.18490e-03 -9.92472e-04
       H  1.45899e-03 -8.94838e-04  4.69783e-03
       O -4.07941e-03  2.65227e-03 -4.12366e-03
       H  6.63493e-04 -4.21656e-03  2.18912e-03
       H  3.97158e-03  1.74675e-03  1.60130e-03
       O -4.39825e-03 -2.29377e-03 -3.98959e-03
       H  4.97071e-04  4.34082e-03  1.67187e-03
       H  3.87720e-03 -1.56856e-03  2.26413e-03
       O  1.10351e-05  4.57822e-03 -3.66523e-03
       H -6.29515e-05 -4.29077e-03 -1.16039e-03
       H -3.22374e-05 -1.75202e-03  4.80878e-03
       O  4.10247e-03 -2.62675e-03  4.13323e-03
       H -3.91458e-03 -1.72582e-03 -1.61245e-03
       H -6.49483e-04  4.13168e-03 -2.17292e-03
       O  6.34823e-05  4.80679e-03  3.25509e-03
       H  2.48487e-04 -4.60787e-03  6.06123e-04
       H -3.65795e-04 -1.08627e-03 -4.67554e-03
       O  2.99379e-05 -4.58416e-03  3.71216e-03
       H  9.94509e-05  4.30116e-03  1.14028e-03
       H -4.80878e-05  1.70776e-03 -4.81441e-03
       O -4.46508e-03  2.63937e-03  3.23306e-03
       H  4.87006e-04 -4.19180e-03 -2.09618e-03
       H  4.35601e-03  1.24606e-03 -1.52221e-03
       O  4.18812e-03  2.40260e-03 -3.29244e-03
       H -3.89282e-03 -2.49444e-03 -5.93183e-04
       H -1.04360e-03 -2.79392e-04  4.68441e-03
       O -9.59735e-06 -5.18519e-03 -3.24564e-03
       H -3.21696e-03  3.10622e-03  1.53686e-03
       H  3.31968e-03  2.46635e-03  2.08118e-03
       O  1.02531e-05  5.18664e-03 -3.24920e-03
       H -3.31772e-03 -2.46563e-03  2.08092e-03
       H  3.21410e-03 -3.10979e-03  1.53306e-03
       O -4.19003e-03 -2.40187e-03 -3.29511e-03
       H  3.89525e-03  2.49362e-03 -5.93976e-04
       H  1.04393e-03  2.78463e-04  4.68532e-03
       O  4.46460e-03 -2.63851e-03  3.23111e-03
       H -4.35372e-03 -1.24892e-03 -1.52666e-03
       H -4.87531e-04  4.19232e-03 -2.09709e-03
       O -3.13643e-05  4.58243e-03  3.70990e-03
       H -9.79820e-05 -4.29816e-03  1.13828e-03
       H  4.86130e-05 -1.70635e-03 -4.81231e-03
       O -6.57731e-05 -4.80810e-03  3.25733e-03
       H -2.46469e-04  4.60952e-03  6.07228e-04
       H  3.67181e-04  1.08657e-03 -4.67662e-03
       O -4.10357e-03  2.62773e-03  4.13456e-03
       H  6.49851e-04 -4.13187e-03 -2.17224e-03
       H  3.91569e-03  1.72485e-03 -1.60874e-03
       O  4.26173e-03  2.25745e-03 -3.22316e-03
       H -3.83682e-03 -2.57388e-03 -4.57250e-04
       H -1.11432e-03 -2.11610e-04  4.57713e-03
       O  5.45013e-06 -5.26744e-03 -3.09107e-03
       H -3.29666e-03  3.16939e-03  1.58742e-03
       H  3.37320e-03  2.41248e-03  2.17995e-03
       O -5.40203e-06  5.26749e-03 -3.09318e-03
       H -3.37291e-03 -2.41108e-03  2.17900e-03
       H  3.29510e-03 -3.17117e-03  1.58601e-03
       O -4.26424e-03 -2.25839e-03 -3.22484e-03
       H  3.83859e-03  2.57262e-03 -4.58296e-04
       H  1.11632e-03  2.13008e-04  4.58001e-03
288
# CELL(abcABC):   25.55133    29.50414    27.81677    90.00000    90.00000    90.00000  Step:           2  Bead:       0 forces{atomic_unit}  cell{atomic_unit}
       O -2.64454e-03  1.61524e-03 -2.21252e-03
       H  3.12267e-03 -1.60037e-03 -9.44429e-04
       H  1.26893e-04 -3.91852e-04  3.80154e-03
       O -2.71618e-03 -1.53127e-03  2.22628e-03
       H  2.96500e-03  1.87600e-03  9.57223e-04
       H  3.43464e-04 -3.81502e-05 -3.80026e-03
       O -2.95990e-03 -1.73601e-03 -2.10637e-03
       H  3.40241e-04  3.63216e-03  9.59000e-04
       H  2.95542e-03 -1.77131e-03  1.45812e-03
       O  3.27588e-05 -3.43968e-03  2.12320e-03
       H -2.93528e-03  2.09067e-03 -9.74647e-04
       H  2.99001e-03  1.61725e-03 -1.43718e-03
       O -2.86214e-05 -3.11208e-03 -2.20010e-03
       H -1.27889e-04  3.51109e-03 -9.36948e-04
       H  2.10281e-04  2.66538e-04  3.79066e-03
       O  2.64347e-03 -1.61401e-03  2.21539e-03
       H -3.11608e-03  1.60481e-03  9.49410e-04
       H -1.22538e-04  4.01841e-04 -3.79435e-03
       O  2.98396e-03 -1.69335e-03 -2.13605e-03
       H -3.27850e-03 -1.48783e-03  9.81233e-04
       H  9.53121e-05  3.38734e-03  1.41623e-03
       O  2.95134e-03  1.72823e-03  2.11906e-03
       H -3.43663e-04 -3.62974e-03 -9.62274e-04
       H -2.95612e-03  1.76435e-03 -1.46242e-03
       O -2.82065e-03 -1.52411e-03  2.65281e-03
       H -1.36121e-04  3.60300e-03 -1.04863e-03
       H  2.93132e-03 -1.72515e-03 -1.56283e-03
       O -2.78444e-03 -1.39320e-03  2.07373e-03
       H  2.94009e-03  1.94530e-03  8.14956e-04
       H  3.67472e-04 -1.33152e-04 -3.69405e-03
       O -2.46206e-03  1.60285e-03  2.40280e-03
       H  2.78564e-03 -1.67356e-03  1.33028e-03
       H  6.77271e-04 -4.48883e-04 -3.80009e-03
       O  6.96859e-05 -3.49106e-03  2.00786e-03
       H -2.97978e-03  2.17804e-03 -1.02250e-03
       H  2.99516e-03  1.54436e-03 -1.50457e-03
       O -1.78990e-05 -2.91935e-03 -2.50466e-03
       H  7.97586e-05  3.23022e-03 -1.42743e-03