288
# CELL(abcABC):   25.55133    29.50414    27.81677    90.00000    90.00000    90.00000  Step:           0  Bead:       0 forces{atomic_unit}  cell{atomic_unit}
       O  1.31424e-02 -6.29862e-03  9.72943e-03
       H  2.57154e-03 -1.86386e-03 -1.92630e-02
       H -1.50883e-02  8.22545e-03  9.50928e-03
       O  1.23450e-02 -7.95525e-03  1.01601e-02
       H -1.49031e-02 -1.15181e-02 -4.71041e-03
       H  3.08538e-03  1.87335e-02 -4.88185e-03
       O -1.18644e-02 -6.33956e-03 -1.09852e-02
       H -3.31748e-03 -2.18961e-03  1.91086e-02
       H  1.46967e-02  8.39756e-03 -9.41828e-03
       O -1.15439e-02  6.58391e-03  1.08970e-02
       H -3.19126e-03  2.06311e-03 -1.89773e-02
       H  1.48090e-02 -8.63524e-03  9.25019e-03
       O  1.10348e-02 -7.94042e-03  1.01307e-02
       H  3.52350e-03 -1.29691e-03 -1.91400e-02
       H -1.46682e-02  8.69054e-03  9.63985e-03
       O -9.66410e-06 -1.33169e-02 -1.10754e-02
       H -7.93380e-05 -3.75069e-03  1.90312e-02
       H  1.64023e-04  1.71310e-02 -9.22103e-03
       O -4.03449e-04  1.34720e-02 -9.49155e-03
       H  2.22892e-04  3.51598e-03  1.92036e-02
       H  2.81468e-05 -1.69478e-02 -9.78539e-03
       O  1.03516e-04  1.46100e-02 -8.92918e-03
       H -1.76440e-02 -6.90140e-03  4.41761e-03
       H  1.76843e-02 -6.93008e-03  4.53194e-03
       O -7.05066e-04 -1.38332e-02 -9.65041e-03
       H -1.75525e-02  6.93764e-03  5.12525e-03
       H  1.77788e-02  6.90702e-03  4.52866e-03
       O -1.21610e-02  7.37984e-03 -9.96626e-03
       H -2.79434e-03  2.04241e-03  1.90735e-02
       H  1.43259e-02 -8.93164e-03 -9.76218e-03
       O -2.60306e-04  1.39931e-02 -9.80668e-03
       H  1.54385e-04  3.28395e-03  1.91834e-02
       H  7.22291e-05 -1.73149e-02 -9.48753e-03
       O -3.25998e-04  1.38671e-02 -1.02277e-02
       H -1.75386e-02 -7.02323e-03  4.72056e-03
       H  1.76760e-02 -6.43020e-03  5.22545e-03
       O  6.57116e-04  1.39962e-02  9.08849e-03
       H -7.37923e-05  3.36252e-03 -1.91623e-02
       H -4.35059e-04 -1.69778e-02  9.98586e-03
       O -1.22003e-02 -5.83967e-03  1.03784e-02
       H  1.45863e-02 -1.21080e-02 -4.74173e-03
       H -2.81524e-03  1.85129e-02 -5.10952e-03
       O  1.22242e-02  7.00499e-03  8.83579e-03
       H -1.45991e-02  1.21948e-02 -4.39936e-03
       H  3.06949e-03 -1.87540e-02 -4.41422e-03
       O -4.85711e-04 -1.49349e-02  8.79141e-03
       H  8.75920e-05 -3.07377e-03 -1.90881e-02
       H  2.14838e-04  1.67058e-02  1.01473e-02
       O  1.13026e-02  7.88706e-03 -9.96543e-03
       H -1.46319e-02  1.18003e-02  5.17362e-03
       H  3.32493e-03 -1.87859e-02  4.73539e-03
       O  1.19420e-02 -7.60786e-03  9.68669e-03
       H -1.46727e-02 -1.18863e-02 -4.63836e-03
       H  3.38362e-03  1.86577e-02 -4.70450e-03
       O -1.17214e-02  7.60438e-03  9.65249e-03
       H -2.87231e-03 -1.89291e-02 -4.48969e-03
       H  1.48621e-02  1.18116e-02 -5.21925e-03
       O -1.19062e-02  5.47911e-03  1.00131e-02
       H -3.04595e-03  2.37014e-03 -1.92174e-02
       H  1.49437e-02 -8.33543e-03  9.60458e-03
       O -1.91620e-04 -1.36223e-02 -1.01111e-02
       H -1.77401e-02  6.85488e-03  4.67642e-03
       H  1.77946e-02  6.46305e-03  5.13007e-03
       O  1.23115e-02  7.13046e-03 -1.00183e-02
       H  2.78751e-03  1.82076e-03  1.91621e-02
       H -1.43832e-02 -8.68693e-03 -9.62889e-03
       O -7.49218e-04  1.33204e-02 -1.02555e-02
       H  3.67287e-04  3.72325e-03  1.91466e-02
       H -2.06654e-06 -1.68321e-02 -9.49104e-03
       O  1.46723e-04  1.41409e-02 -1.05976e-02
       H -1.74542e-02 -6.60021e-03  5.44452e-03
       H  1.73590e-02 -7.20777e-03  4.84063e-03
       O  1.70331e-04  1.31957e-02  1.06685e-02
       H -2.94474e-05  3.90655e-03 -1.90219e-02
       H -1.51334e-04 -1.70937e-02  9.42614e-03
       O  1.19649e-02  6.92240e-03 -9.65182e-03
       H  2.86698e-03  2.29967e-03  1.91431e-02
       H -1.43584e-02 -8.70076e-03 -9.88242e-03
       O -1.26686e-02  6.62511e-03  9.44442e-03
       H -2.95418e-03 -1.87418e-02 -4.51959e-03
       H  1.45156e-02  1.23071e-02 -4.50189e-03
       O -1.16608e-02 -7.53939e-03 -9.87052e-03
       H  1.45972e-02 -1.19168e-02  4.60203e-03
       H -3.49054e-03  1.84951e-02  4.64664e-03
       O -5.58066e-04  1.36131e-02  1.04411e-02
       H  4.19013e-04  3.59544e-03 -1.92875e-02
       H  2.48449e-05 -1.70853e-02  9.53465e-03
       O -1.04507e-03  1.43890e-02  1.05574e-02
       H -1.72923e-02 -7.19553e-03 -5.28497e-03
       H  1.75601e-02 -6.83895e-03 -4.98198e-03
       O  1.22895e-03 -1.33866e-02  1.00396e-02
       H -1.79206e-02  6.29460e-03 -4.71511e-03
       H  1.74462e-02  6.81729e-03 -4.94760e-03
       O  1.31535e-02  7.95173e-03  9.25080e-03
       H  2.59209e-03  1.29231e-03 -1.91011e-02
       H -1.47295e-02 -8.48125e-03  9.75669e-03
       O  1.14310e-02  7.83950e-03 -1.02010e-02
       H -1.46360e-02  1.15960e-02  5.03836e-03
       H  3.19620e-03 -1.87506e-02  4.83746e-03
       O  1.23426e-02 -7.10282e-03  8.89608e-03
       H -1.47360e-02 -1.19900e-02 -4.46131e-03
       H  3.02860e-03  1.87825e-02 -4.44655e-03
       O -1.15993e-02 -7.37512e-03 -1.02516e-02
       H -3.40959e-03 -1.34070e-03  1.91756e-02
       H  1.47741e-02  8.62596e-03 -9.56863e-03
       O -1.19862e-02  6.71304e-03  9.64085e-03
       H -3.26220e-03  1.44580e-03 -1.90162e-02
       H  1.48179e-02 -8.05617e-03  9.81030e-03
       O -1.28911e-02 -6.18549e-03  9.14483e-03
       H -2.71033e-03 -1.92518e-03 -1.91803e-02
       H  1.49309e-02  7.92984e-03  1.00134e-02
       O -1.28438e-02 -6.82854e-03  9.81761e-03
       H  1.46271e-02 -1.21053e-02 -4.79586e-03
       H -2.79281e-03  1.86439e-02 -4.58108e-03
       O  1.20176e-02  6.75315e-03  1.05563e-02
       H -1.45936e-02  1.20060e-02 -5.48365e-03
       H  2.67574e-03 -1.85856e-02 -4.68525e-03
       O  1.17828e-02  5.79684e-03  1.01765e-02
       H  3.04500e-03  2.34834e-03 -1.91788e-02
       H -1.48417e-02 -8.38605e-03  9.55088e-03
       O  1.34591e-03 -1.37400e-02 -1.05099e-02
       H -1.77253e-02  6.56009e-03  4.74872e-03
       H  1.73241e-02  6.94901e-03  5.29315e-03
       O  1.49255e-04 -1.34516e-02 -9.69565e-03
       H -1.39354e-04 -3.43780e-03  1.92465e-02
       H -1.09474e-04  1.73249e-02 -9.60043e-03
       O  1.36917e-03  1.41520e-02 -9.24911e-03
       H -3.16401e-04  3.35010e-03  1.91839e-02
       H -4.69649e-04 -1.67965e-02 -9.90328e-03
       O  8.05475e-04  1.47574e-02 -1.01874e-02
       H -1.77953e-02 -6.75653e-03  4.84963e-03
       H  1.74488e-02 -7.12243e-03  4.71943e-03
       O -5.04873e-04 -1.38843e-02 -9.08125e-03
       H -1.75918e-02  6.80079e-03  5.01878e-03
       H  1.77240e-02  7.08820e-03  4.30765e-03
       O  1.15054e-02  7.89246e-03 -8.94646e-03
       H  3.01522e-03  1.58449e-03  1.91677e-02
       H -1.44836e-02 -8.90347e-03 -1.00391e-02
       O -1.17327e-02  6.86197e-03  1.00824e-02
       H -3.36934e-03 -1.86119e-02 -5.13013e-03
       H  1.47841e-02  1.19716e-02 -4.56008e-03
       O -1.28310e-02 -6.60263e-03 -9.91270e-03
       H  1.44923e-02 -1.20830e-02  4.72155e-03
       H -2.61121e-03  1.87868e-02  4.77565e-03
       O -1.13706e-02  8.15677e-03 -1.03131e-02
       H -3.12869e-03 -1.86573e-02  4.73758e-03
       H  1.46354e-02  1.15442e-02  5.43414e-03
       O -1.13920e-02  6.61102e-03 -9.46945e-03
       H -3.15054e-03  1.74753e-03  1.93306e-02
       H  1.47520e-02 -8.61225e-03 -9.74672e-03
       O  1.18105e-02  8.18981e-03  1.06019e-02
       H -1.48505e-02  1.13819e-02 -5.37916e-03
       H  2.89875e-03 -1.87458e-02 -4.85759e-03
       O  1.25333e-02 -7.17445e-03 -8.88398e-03
       H -1.47819e-02 -1.20690e-02  4.57735e-03
       H  3.00318e-03  1.87773e-02  4.52022e-03
       O -1.26711e-02  5.60887e-03 -1.04378e-02
       H -2.66570e-03 -1.85652e-02  5.29986e-03
       H  1.46281e-02  1.22668e-02  4.71141e-03
       O  7.21554e-04  1.40148e-02  9.81489e-03
       H -1.80065e-02 -6.31343e-03 -4.71965e-03
       H  1.77226e-02 -6.84161e-03 -4.52696e-03
       O -1.34271e-03 -1.39881e-02  1.03726e-02
       H -1.73616e-02  7.01468e-03 -5.45489e-03
       H  1.77226e-02  6.54896e-03 -4.82709e-03
       O  1.02060e-03 -1.38161e-02  9.20049e-03
       H -1.13038e-04 -3.42163e-03 -1.91805e-02
       H -4.27736e-04  1.69913e-02  9.84913e-03
       O -1.23028e-02  5.66360e-03 -1.00651e-02
       H -2.85616e-03 -1.85653e-02  4.91100e-03
       H  1.45464e-02  1.23968e-02  4.78553e-03
       O  6.63793e-05 -1.43181e-02 -9.96297e-03
       H  1.60484e-04 -3.37680e-03  1.90799e-02
       H -4.62098e-04  1.69286e-02 -9.67538e-03
       O  1.19571e-02 -6.31537e-03 -1.02789e-02
       H  3.03743e-03 -2.29407e-03  1.92524e-02
       H -1.47483e-02  8.48935e-03 -9.68803e-03
       O  1.26515e-02 -6.15189e-03 -1.02491e-02
       H -1.46403e-02 -1.19984e-02  4.92938e-03
       H  2.62553e-03  1.85298e-02  5.08289e-03
       O -1.20958e-02 -7.02168e-03  9.94338e-03
       H -2.73598e-03 -1.99070e-03 -1.89792e-02
       H  1.45300e-02  8.79076e-03  9.61583e-03
       O -4.03957e-05  1.38682e-02  1.05568e-02
       H -1.75272e-02 -6.56429e-03 -5.51270e-03
       H  1.74999e-02 -7.09723e-03 -4.70954e-03
       O -5.47728e-04 -1.42529e-02  9.96272e-03
       H -1.74979e-02  6.85935e-03 -4.55624e-03
       H  1.78379e-02  6.79070e-03 -4.68436e-03
       O  1.17781e-02  8.01314e-03  9.28065e-03
       H  2.93834e-03  1.36690e-03 -1.92147e-02
       H -1.42859e-02 -8.83566e-03  9.97085e-03
       O -1.14287e-02 -7.09580e-03  1.04292e-02
       H -3.45603e-03 -1.42268e-03 -1.92507e-02
       H  1.47873e-02  8.48748e-03  9.46573e-03
       O -1.23521e-02  7.01339e-03 -9.96592e-03
       H -3.04949e-03  1.32621e-03  1.91040e-02
       H  1.50349e-02 -8.17926e-03 -9.63038e-03
       O  1.25105e-02 -5.81110e-03 -1.06890e-02
       H  2.61403e-03 -2.43043e-03  1.91721e-02
       H -1.50013e-02  8.48622e-03 -9.09555e-03
       O  1.24035e-02 -7.24310e-03 -9.30571e-03
       H -1.49097e-02 -1.18751e-02  4.58848e-03
       H  2.93076e-03  1.87402e-02  4.48384e-03
       O  1.20005e-02  6.15315e-03 -9.39114e-03
       H -1.49116e-02  1.20463e-02  4.31844e-03
       H  2.98860e-03 -1.86022e-02  5.01112e-03
       O -2.47677e-04 -1.49946e-02 -8.84768e-03
       H  1.72542e-04 -3.08272e-03  1.91669e-02
       H  2.29705e-04  1.67584e-02 -1.01412e-02
       O -1.31550e-02 -6.68485e-03 -9.56706e-03
       H -2.56649e-03 -1.46725e-03  1.91138e-02
       H  1.51509e-02  8.18410e-03 -9.61850e-03
       O -1.26193e-02 -6.17437e-03 -1.01364e-02
       H  1.46807e-02 -1.20636e-02  4.84648e-03
       H -2.65649e-03  1.85420e-02  5.05021e-03
       O  1.16604e-02 -5.95657e-03  1.00801e-02
       H  3.07372e-03 -2.35150e-03 -1.91434e-02
       H -1.47523e-02  8.53502e-03  9.58114e-03
       O  1.18935e-02 -7.65718e-03  1.02080e-02
       H -1.48601e-02 -1.17294e-02 -4.73752e-03
       H  3.32791e-03  1.85117e-02 -4.72592e-03
       O  5.17202e-04 -1.39773e-02  9.74266e-03
       H -1.78609e-02  6.38974e-03 -4.62630e-03
       H  1.77234e-02  6.68047e-03 -4.62423e-03
       O -1.26433e-02  7.05273e-03  8.92263e-03
       H -2.70829e-03  1.61077e-03 -1.92121e-02
       H  1.45069e-02 -8.32296e-03  1.00302e-02
       O -1.27549e-02 -6.33875e-03  9.23389e-03
       H -2.82383e-03 -1.60038e-03 -1.90990e-02
       H  1.47399e-02  8.06524e-03  9.83441e-03
       O -1.28469e-02 -6.63134e-03  9.65363e-03
       H  1.51690e-02 -1.16416e-02 -4.59865e-03
       H -2.51306e-03  1.84915e-02 -5.26317e-03
       O  1.14218e-02  6.77562e-03  1.03940e-02
       H -1.47087e-02  1.18090e-02 -4.49527e-03
       H  3.47183e-03 -1.84997e-02 -5.28067e-03
       O -1.19363e-03 -1.41180e-02  9.24977e-03
       H  3.10673e-04 -3.30535e-03 -1.92274e-02
       H  6.41244e-04  1.67248e-02  9.86975e-03
       O -1.20393e-02  7.38840e-03 -9.28605e-03
       H -2.79637e-03 -1.90278e-02  4.65088e-03
       H  1.47462e-02  1.18571e-02  4.92690e-03
       O -1.17695e-02 -7.59287e-03  9.70528e-03
       H  1.47892e-02 -1.18622e-02 -4.49587e-03
       H -3.64035e-03  1.86575e-02 -4.64258e-03
       O  1.16863e-02 -7.54185e-03 -1.06357e-02
       H  3.23136e-03 -1.38901e-03  1.91289e-02
       H -1.49209e-02  8.73030e-03 -9.22641e-03
       O  1.25701e-02  6.09835e-03  9.07901e-03
       H  2.89651e-03  1.75229e-03 -1.91750e-02
       H -1.48993e-02 -8.02927e-03  9.99242e-03
       O  1.32390e-02 -7.18476e-03  8.98222e-03
       H  2.55238e-03 -1.59031e-03 -1.91861e-02
       H -1.45366e-02  8.35805e-03  1.00868e-02
       O  1.11589e-02  7.57305e-03 -1.04276e-02
       H  3.36305e-03  1.27998e-03  1.91619e-02
       H -1.48120e-02 -8.74026e-03 -9.36348e-03
       O -1.08610e-02  7.65314e-03  1.03499e-02
       H -3.34401e-03 -1.86285e-02 -4.64166e-03
       H  1.45471e-02  1.17021e-02 -5.12853e-03
       O -1.27334e-02 -7.24685e-03 -8.94789e-03
       H  1.46863e-02 -1.18185e-02  4.36078e-03
       H -2.78648e-03  1.88435e-02  4.66571e-03
       O  1.28160e-02  5.81845e-03 -1.02634e-02
       H -1.46356e-02  1.21540e-02  4.60181e-03
       H  2.70944e-03 -1.86213e-02  5.45975e-03
       O  1.31915e-04  1.44552e-02  8.86874e-03
       H -1.78510e-02 -6.76322e-03 -4.55614e-03
       H  1.77241e-02 -6.69315e-03 -4.50520e-03
       O -1.10292e-02 -7.88525e-03 -1.02640e-02
       H -3.54998e-03 -1.27313e-03  1.92281e-02
       H  1.45428e-02  8.68973e-03 -9.60659e-03
       O  1.55239e-04 -1.31264e-02  1.06139e-02
       H  7.52034e-05 -3.91698e-03 -1.90862e-02
       H -7.14346e-05  1.69810e-02  9.48459e-03
       O  7.47182e-04  1.38266e-02  1.07544e-02
       H -3.17409e-04  3.39649e-03 -1.91701e-02
       H -1.48744e-04 -1.72715e-02  9.13119e-03
       O -1.07756e-02  7.64385e-03 -9.99153e-03
       H -3.52004e-03  1.32690e-03  1.91722e-02
       H  1.46207e-02 -8.57629e-03 -9.65716e-03
       O  1.18027e-02 -7.08779e-03 -1.13124e-02
       H  3.30821e-03 -1.65362e-03  1.90165e-02
       H -1.49349e-02  8.61129e-03 -8.98261e-03
       O  1.27959e-02 -7.07855e-03 -9.11724e-03
       H -1.48560e-02 -1.19572e-02  4.44496e-03
       H  2.83314e-03  1.87289e-02  4.69652e-03
288
# CELL(abcABC):   25.55133    29.50414    27.81677    90.00000    90.00000    90.00000  Step:           1  Bead:       0 forces{atomic_unit}  cell{atomic_unit}
       O -3.79096e-03  3.42845e-03 -3.67321e-03
       H  3.75688e-03 -2.44050e-03 -7.98476e-04
       H  7.93731e-04 -9.21028e-04  4.43248e-03
       O -4.10357e-03  2.23080e-03 -3.45106e-03
       H  5.04829e-04 -3.99432e-03  2.07095e-03
       H  4.28204e-03  8.91593e-04  2.13549e-03
       O  4.13688e-03  2.67983e-03  3.02164e-03
       H -4.39247e-03 -2.75073e-03  7.40971e-07
       H -3.24984e-04 -2.50351e-04 -4.58492e-03
       O  4.46489e-03 -2.60713e-03 -3.06657e-03
       H -4.30955e-03  2.67487e-03 -2.74731e-07
       H -2.32942e-04  7.74825e-05  4.45234e-03
       O -5.13195e-03  1.49352e-03 -3.31277e-03
       H  4.50857e-03 -1.93780e-03 -5.21235e-04
       H  5.77221e-04 -1.88287e-04  4.64459e-03
       O -2.88998e-05  5.09221e-03  3.12120e-03
       H -6.27104e-05 -5.01941e-03 -1.29126e-04
       H  1.18245e-04 -2.19650e-04 -4.45626e-03
       O -2.56909e-04 -5.25340e-03  3.65587e-03
       H  1.67653e-04  4.60982e-03  9.25110e-04
       H  1.48105e-05  6.96218e-04 -4.71784e-03
       O -1.63567e-06 -4.33188e-03  4.39532e-03
       H -3.22512e-03  2.69496e-03 -2.28581e-03
       H  3.32875e-03  2.60816e-03 -2.17710e-03
       O -1.53857e-04  5.17979e-03  3.80060e-03
       H -3.42561e-03 -2.44388e-03 -1.50673e-03
       H  3.09586e-03 -2.78175e-03 -2.33904e-03
       O  4.26982e-03 -2.22004e-03  3.29809e-03
       H -3.89651e-03  2.70662e-03  5.90197e-04
       H -1.23889e-03  6.66408e-05 -4.74038e-03
       O -1.93497e-04 -5.31050e-03  3.62278e-03
       H  1.25986e-04  4.53363e-03  7.09838e-04
       H  6.42764e-05  7.44768e-04 -4.42410e-03
       O -6.23291e-06 -5.21866e-03  3.19123e-03
       H -3.25618e-03  2.49583e-03 -2.05155e-03
       H  3.11814e-03  3.24710e-03 -1.62024e-03
       O  6.94031e-04 -5.03317e-03 -3.68823e-03
       H -5.13580e-05  4.51618e-03 -1.11906e-03
       H -4.46385e-04  1.11612e-03  4.83636e-03
       O  4.44323e-03  2.93429e-03 -3.08483e-03
       H -1.26935e-03 -4.14242e-03  2.18475e-03
       H -3.81036e-03  1.78059e-03  1.49551e-03
       O -3.76495e-03 -2.18572e-03 -4.36309e-03
       H  6.87613e-04  4.45956e-03  2.20165e-03
       H  4.04025e-03 -1.65742e-03  2.15826e-03
       O -3.55249e-04  4.59408e-03 -3.63622e-03
       H  6.85219e-05 -4.30684e-03 -1.26657e-03
       H  1.71205e-04 -1.82790e-03  4.89858e-03
       O -4.65119e-03 -2.34742e-03  3.22688e-03
       H  3.21964e-04  4.33934e-03 -1.38430e-03
       H  4.36326e-03 -9.64322e-04 -2.19074e-03
       O -4.15462e-03  2.22784e-03 -3.53844e-03
       H  5.39022e-04 -4.28716e-03  2.00669e-03
       H  4.44281e-03  1.08333e-03  2.10391e-03
       O  4.54507e-03 -2.38162e-03 -3.83471e-03
       H -3.93055e-03 -1.30323e-03  2.38953e-03
       H -3.91808e-04  4.19741e-03  1.45428e-03
       O  4.07760e-03 -3.64517e-03 -3.49760e-03
       H -4.02009e-03  2.88296e-03 -5.80679e-04
       H -1.95400e-04  2.92999e-04  4.62633e-03
       O -1.89691e-06  5.23341e-03  3.23696e-03
       H -3.38683e-03 -2.61448e-03 -2.07880e-03
       H  3.27083e-03 -3.13387e-03 -1.62749e-03
       O -4.18566e-03 -2.41752e-03  3.37232e-03
       H  3.87704e-03  2.49281e-03  5.82520e-04
       H  1.19817e-03  2.27776e-04 -4.62376e-03
       O -8.32059e-04 -5.15089e-03  3.43295e-03
       H  3.84121e-04  4.89578e-03  4.29953e-04
       H -5.98955e-05  5.27214e-04 -4.57790e-03
       O -3.60488e-06 -5.24392e-03  3.08218e-03
       H -2.93420e-03  3.18419e-03 -1.47616e-03
       H  2.95590e-03  2.45890e-03 -2.05946e-03
       O  1.01433e-04 -5.12328e-03 -3.06433e-03
       H -9.26027e-06  5.10717e-03 -1.33878e-04
       H -1.14600e-04  2.62421e-04  4.58003e-03
       O -4.14256e-03 -2.46154e-03  3.45903e-03
       H  3.88067e-03  2.87571e-03  7.58212e-04
       H  1.04802e-03  1.43992e-04 -4.83996e-03
       O  3.82624e-03 -2.43469e-03 -3.72239e-03
       H -3.99626e-03 -1.73775e-03  2.08191e-03
       H -1.20587e-03  4.44788e-03  2.28553e-03
       O  4.21364e-03  2.13120e-03  3.40464e-03
       H -4.96262e-04 -4.30942e-03 -2.03513e-03
       H -4.49791e-03  1.05882e-03 -2.12357e-03
       O -6.90019e-04 -5.14998e-03 -3.36078e-03
       H  4.04312e-04  4.83780e-03 -3.89610e-04
       H  9.09472e-06  5.55257e-04  4.60671e-03
       O -3.89913e-04 -5.10077e-03 -3.22131e-03
       H -3.15460e-03  2.38235e-03  1.46744e-03
       H  2.65198e-03  3.20345e-03  2.11462e-03
       O  3.10906e-04  5.20918e-03 -3.14873e-03
       H -3.10359e-03 -3.39341e-03  2.16901e-03
       H  3.62321e-03 -2.30483e-03  1.51185e-03
       O -4.04213e-03 -2.10885e-03 -3.55787e-03
       H  3.77470e-03  2.01831e-03 -1.01826e-03
       H  1.53589e-03  9.12332e-04  4.57781e-03
       O -4.64533e-03 -2.35186e-03  3.13977e-03
       H  3.86134e-04  4.17040e-03 -1.55139e-03
       H  4.27580e-03 -9.50430e-04 -2.11571e-03
       O -3.80707e-03  2.23974e-03 -4.39758e-03
       H  6.43599e-04 -4.26713e-03  2.16440e-03
       H  4.00449e-03  1.58616e-03  2.21807e-03
       O  4.86538e-03  1.99476e-03  3.38709e-03
       H -4.48697e-03 -1.95992e-03  4.17063e-04
       H -5.97658e-04 -2.84394e-04 -4.58529e-03
       O  4.15894e-03 -2.52760e-03 -3.47273e-03
       H -4.26379e-03  1.98963e-03 -6.83686e-04
       H -5.26232e-04  8.29697e-04  4.78244e-03
       O  3.73525e-03  3.41917e-03 -3.62933e-03
       H -3.75170e-03 -2.44967e-03 -1.09101e-03
       H -8.27884e-04 -1.11844e-03  4.81977e-03
       O  3.84212e-03  2.45112e-03 -3.60415e-03
       H -1.19926e-03 -4.26287e-03  2.08563e-03
       H -3.89717e-03  1.49669e-03  2.13749e-03
       O -4.68559e-03 -2.59861e-03 -3.05633e-03
       H  1.13647e-03  4.21783e-03  1.40323e-03
       H  3.78651e-03 -1.40746e-03  2.12510e-03
       O -4.09603e-03 -3.41394e-03 -3.39968e-03
       H  4.02477e-03  2.89255e-03 -4.94748e-04
       H  2.34576e-04  2.95751e-04  4.60002e-03
       O  3.59611e-04  5.35052e-03  2.97270e-03
       H -2.81216e-03 -3.36258e-03 -2.26987e-03
       H  3.44532e-03 -2.34091e-03 -1.33485e-03
       O  1.01386e-04  5.49495e-03  3.70984e-03
       H -9.88173e-05 -4.60485e-03  8.10564e-04
       H -8.85586e-05 -5.30530e-04 -4.54125e-03
       O  1.29273e-03 -4.94093e-03  3.64663e-03
       H -2.12825e-04  4.51090e-03  1.05641e-03
       H -4.04887e-04  1.25823e-03 -4.75553e-03
       O  1.25817e-04 -4.62967e-03  3.54840e-03
       H -2.86004e-03  3.25914e-03 -2.19260e-03
       H  3.23232e-03  2.48437e-03 -2.07765e-03
       O -2.01136e-04  4.95100e-03  4.09280e-03
       H -3.42702e-03 -2.50607e-03 -1.57586e-03
       H  3.19459e-03 -2.48406e-03 -2.39401e-03
       O -4.93932e-03 -1.62215e-03  3.66732e-03
       H  3.93761e-03  2.20759e-03  1.23002e-03
       H  1.15956e-03  2.05993e-04 -4.83588e-03
       O  4.48620e-03 -2.58573e-03 -3.13764e-03
       H -4.38964e-03 -1.35005e-03  1.58576e-03
       H -5.89084e-04  4.24461e-03  2.16147e-03
       O  3.99659e-03  2.54980e-03  3.58477e-03
       H -1.38520e-03 -4.23393e-03 -2.16537e-03
       H -3.73407e-03  1.67345e-03 -1.98085e-03
       O  4.73274e-03 -2.32274e-03  3.10747e-03
       H -4.28129e-03 -7.29249e-04 -2.28236e-03
       H -3.60013e-04  4.16509e-03 -1.21638e-03
       O  4.71109e-03 -2.66998e-03  3.87566e-03
       H -4.04015e-03  2.27978e-03  9.20302e-04
       H -4.73873e-04  1.67290e-04 -4.66246e-03
       O -4.68326e-03 -2.27246e-03 -3.14499e-03
       H  4.42681e-04  3.93276e-03  1.36555e-03
       H  4.12522e-03 -7.19528e-04  2.24187e-03
       O -3.83213e-03  2.16568e-03  4.41826e-03
       H  7.05879e-04 -4.29046e-03 -2.12488e-03
       H  4.01720e-03  1.55558e-03 -2.14476e-03
       O  4.47879e-03 -2.98672e-03  3.09478e-03
       H -3.75957e-03 -1.88186e-03 -1.31080e-03
       H -1.55601e-03  4.19465e-03 -2.33376e-03
       O  1.94552e-04 -4.79801e-03 -3.50888e-03
       H -3.22391e-03  3.38897e-03  2.12990e-03
       H  3.49965e-03  2.51505e-03  2.09473e-03
       O -3.92645e-04  5.22216e-03 -3.12031e-03
       H -3.38665e-03 -2.32514e-03  1.20150e-03
       H  2.76497e-03 -3.41155e-03  2.20766e-03
       O  9.72890e-04  5.12206e-03 -3.75225e-03
       H -5.61150e-05 -4.54619e-03 -1.05512e-03
       H -3.76460e-04 -9.99879e-04  4.71023e-03
       O  4.43373e-03 -2.88048e-03  3.18192e-03
       H -3.85137e-03 -1.98622e-03 -1.56862e-03
       H -1.38126e-03  4.36840e-03 -2.15243e-03
       O -3.13636e-05  4.80218e-03  3.29935e-03
       H  2.12656e-04 -4.66065e-03  5.89663e-04
       H -4.86015e-04 -1.12993e-03 -4.64997e-03
       O -4.12248e-03  3.15041e-03  3.37572e-03
       H  4.04815e-03 -2.89725e-03  4.66960e-04
       H  4.93435e-04 -2.77837e-04 -4.70447e-03
       O -4.27447e-03  2.84801e-03  3.22292e-03
       H  1.32855e-03 -4.09496e-03 -2.06556e-03
       H  3.76647e-03  1.68026e-03 -1.57446e-03
       O  4.22851e-03  2.38451e-03 -3.43145e-03
       H -3.80390e-03 -2.63820e-03 -5.00300e-04
       H -9.67554e-04 -1.03845e-04  4.65585e-03
       O  5.17905e-05 -5.24703e-03 -3.05451e-03
       H -3.10163e-03  3.07828e-03  1.32634e-03
       H  3.04025e-03  2.57828e-03  2.17109e-03
       O -1.46298e-04  4.75059e-03 -3.53611e-03
       H -3.26667e-03 -2.57892e-03  2.16494e-03
       H  3.08690e-03 -3.01885e-03  2.17834e-03
       O -4.77231e-03 -1.48959e-03 -3.66130e-03
       H  3.93612e-03  2.02706e-03 -1.04643e-03
       H  1.33334e-03  2.18911e-04  4.83900e-03
       O  4.78476e-03  2.08732e-03 -3.44973e-03
       H -4.50835e-03 -2.00464e-03 -3.56153e-04
       H -3.81691e-04 -2.70769e-04  4.55750e-03
       O  4.24623e-03 -2.54157e-03  3.43965e-03
       H -4.18853e-03  1.93839e-03  5.53647e-04
       H -6.15122e-04  8.77924e-04 -4.60490e-03
       O -3.85742e-03  3.52081e-03  3.35818e-03
       H  3.78777e-03 -3.01818e-03  2.01304e-04
       H  3.12611e-04 -2.88087e-04 -4.25662e-03
       O -3.88073e-03  2.26794e-03  4.20779e-03
       H  5.52243e-04 -4.15650e-03 -2.15150e-03
       H  3.97093e-03  1.44531e-03 -2.28888e-03
       O -4.39272e-03 -2.67672e-03  3.81731e-03
       H  6.67193e-04  4.16183e-03 -2.41317e-03
       H  3.94660e-03 -1.86583e-03 -1.50870e-03
       O -2.22335e-04  4.61906e-03  3.60732e-03
       H  1.34549e-04 -4.34097e-03  1.30289e-03
       H  2.06907e-04 -1.85773e-03 -4.87977e-03
       O  3.83775e-03  3.23510e-03  3.55239e-03
       H -3.76362e-03 -2.11701e-03  8.37031e-04
       H -8.71712e-04 -1.04248e-03 -4.49682e-03
       O  4.22244e-03  2.84888e-03  3.31622e-03
       H -1.26994e-03 -4.15765e-03 -2.10049e-03
       H -3.78093e-03  1.66462e-03 -1.59335e-03
       O -4.16577e-03  3.20140e-03 -3.43781e-03
       H  4.04457e-03 -2.89989e-03 -5.16152e-04
       H  2.94922e-04 -1.45556e-04  4.66731e-03
       O -4.23210e-03  2.18682e-03 -3.40228e-03
       H  4.57577e-04 -4.13891e-03  1.99557e-03
       H  4.41910e-03  9.14913e-04  2.18463e-03
       O  1.91582e-04  4.76458e-03 -3.45230e-03
       H -3.24632e-03 -3.24699e-03  2.13088e-03
       H  3.48622e-03 -2.69203e-03  2.03997e-03
       O  4.02207e-03 -2.43802e-03 -3.75810e-03
       H -3.75556e-03  2.19749e-03 -1.20835e-03
       H -1.34264e-03  7.86574e-04  4.83347e-03
       O  3.81074e-03  3.22669e-03 -3.58646e-03
       H -3.86332e-03 -2.16945e-03 -1.04003e-03
       H -9.35505e-04 -9.45066e-04  4.69872e-03
       O  4.23964e-03  2.51119e-03 -4.02745e-03
       H -8.05531e-04 -3.77851e-03  2.35283e-03
       H -3.68670e-03  1.50519e-03  1.45158e-03
       O -4.65491e-03 -2.70625e-03 -2.89533e-03
       H  5.32568e-04  4.12681e-03  2.20354e-03
       H  4.46618e-03 -1.24436e-03  1.45306e-03
       O -1.15143e-03  4.88748e-03 -3.72181e-03
       H  1.94794e-04 -4.48970e-03 -1.05600e-03
       H  6.16455e-04 -1.23499e-03  4.75163e-03
       O  4.31405e-03 -2.38757e-03  4.12712e-03
       H -3.83636e-03 -1.49610e-03 -2.18156e-03
       H -5.65992e-04  4.23377e-03 -1.72856e-03
       O  4.17298e-03  2.18432e-03 -3.55524e-03
       H -3.82871e-04 -4.24424e-03  2.08926e-03
       H -4.62471e-03  1.10665e-03  2.15691e-03
       O -4.80928e-03  1.92961e-03  3.27322e-03
       H  4.37044e-03 -2.04322e-03  2.24018e-04
       H  4.68123e-04 -1.93491e-04 -4.33119e-03
       O -3.90058e-03 -3.29838e-03 -3.70897e-03
       H  3.88947e-03  2.27962e-03 -1.12172e-03
       H  7.18058e-04  9.49232e-04  4.82906e-03
       O -3.85169e-03  2.53413e-03 -3.59592e-03
       H  3.67811e-03 -2.20760e-03 -1.20267e-03
       H  1.62143e-03 -9.23910e-04  4.83445e-03
       O -4.97505e-03 -1.83638e-03  3.44168e-03
       H  4.40719e-03  1.91272e-03  3.13447e-04
       H  4.01719e-04  8.29424e-05 -4.46866e-03
       O  4.86742e-03 -2.41085e-03 -2.99495e-03
       H -4.32673e-03 -9.62659e-04  2.25284e-03
       H -2.82525e-04  4.24294e-03  1.40784e-03
       O  3.66763e-03  2.15862e-03  4.42779e-03
       H -7.79815e-04 -4.13636e-03 -2.32701e-03
       H -3.86468e-03  1.58195e-03 -2.07315e-03
       O -4.29826e-03 -2.94136e-03  3.25629e-03
       H  1.48540e-03  4.14926e-03 -2.41248e-03
       H  3.79093e-03 -1.81518e-03 -1.20351e-03
       O -6.26113e-05 -4.35841e-03 -4.36139e-03
       H -3.32737e-03  2.77459e-03  2.16039e-03
       H  3.38686e-03  2.74274e-03  2.13046e-03
       O  5.00427e-03  1.53456e-03  3.34646e-03
       H -4.54045e-03 -1.90969e-03  4.85822e-04
       H -5.96899e-04 -1.27068e-04 -4.65144e-03
       O  1.00578e-04  5.08813e-03 -3.21419e-03
       H  7.51022e-05 -5.06563e-03 -1.47058e-04
       H -5.62764e-05 -2.72311e-04  4.61395e-03
       O  8.33251e-04 -5.16675e-03 -3.34392e-03
       H -3.09658e-04  4.74408e-03 -1.62016e-04
       H -1.02559e-04  4.59276e-04  4.26972e-03
       O  5.03659e-03 -1.62011e-03  3.46200e-03
       H -4.44367e-03  1.92743e-03  5.65055e-04
       H -3.80466e-04  1.82053e-04 -4.69164e-03
       O -4.40314e-03  2.40507e-03  3.05629e-03
       H  4.48358e-03 -2.38329e-03 -2.73689e-04
       H  2.79661e-04 -1.62283e-04 -4.23076e-03
       O -3.89969e-03  2.11433e-03  4.34949e-03
       H  8.45066e-04 -4.16536e-03 -2.32408e-03
       H  3.90500e-03  1.58700e-03 -2.02551e-03
288
# CELL(abcABC):   25.55133    29.50414    27.81677    90.00000    90.00000    90.00000  Step:           2  Bead:       0 forces{atomic_unit}  cell{atomic_unit}
       O -2.36540e-03  2.34852e-03 -2.35502e-03
       H  2.85671e-03 -1.84841e-03 -1.22169e-03
       H  1.33916e-04 -4.23077e-04  3.54834e-03
       O -2.72895e-03  1.39732e-03 -2.19688e-03
       H -2.76857e-05 -3.27061e-03  1.39669e-03
       H  3.29003e-03  1.18021e-03  1.42942e-03
       O  2.70607e-03  1.84525e-03  1.95070e-03
       H -3.38561e-03 -2.12889e-03  4.46389e-04
       H  1.98482e-04  4.20751e-05 -3.66970e-03
       O  2.97675e-03 -1.75195e-03 -1.92517e-03
       H -3.30740e-03  2.07000e-03 -5.16039e-04
       H  3.37401e-04 -2.41589e-04  3.55339e-03
       O -3.43242e-03  7.84121e-04 -2.18413e-03
       H  3.44110e-03 -1.48012e-03 -8.75291e-04
       H -4.99272e-05  1.40557e-04  3.72384e-03
       O -2.03648e-05  3.45664e-03  1.94079e-03
       H -5.15960e-05 -3.85976e-03  4.50120e-04
       H  1.02255e-04  3.62834e-04 -3.55310e-03
       O -2.49992e-04 -3.39620e-03  2.38670e-03
       H  1.31173e-04  3.48366e-03  1.25985e-03
       H  3.62927e-05 -3.65548e-05 -3.78034e-03
       O  5.99319e-05 -2.79390e-03  2.95236e-03
       H -2.90997e-03  1.79879e-03 -1.54381e-03
       H  2.96515e-03  1.74701e-03 -1.45098e-03
       O -2.26197e-04  3.34562e-03  2.47911e-03
       H -3.07407e-03 -1.56102e-03 -9.25310e-04
       H  2.89568e-03 -1.79981e-03 -1.58227e-03
       O  2.79321e-03 -1.39171e-03  2.21129e-03
       H -2.96285e-03  2.09054e-03  9.05268e-04
       H -5.31340e-04 -2.35956e-04 -3.82135e-03
       O -1.80225e-04 -3.39898e-03  2.30455e-03
       H  1.04510e-04  3.43556e-03  1.13511e-03
       H  5.91812e-05 -4.73133e-05 -3.55113e-03
       O -1.44322e-04 -3.40582e-03  2.08970e-03
       H -2.91197e-03  1.62258e-03 -1.39604e-03
       H  2.87513e-03  2.20343e-03 -1.03312e-03
       O  4.82333e-04 -3.29399e-03 -2.50926e-03
       H -3.60504e-05  3.42241e-03 -1.38388e-03