1296
# CELL(abcABC):   51.10267    44.25621    41.72515    90.00000    90.00000    90.00000  Step:           0  Bead:       0 forces{atomic_unit}  cell{atomic_unit}
       O -1.25054e-03  1.41451e-02  9.20214e-03
       H  2.92196e-04  3.30697e-03 -1.92033e-02
       H  4.98926e-04 -1.68004e-02  9.97953e-03
       O  1.17743e-02 -7.59886e-03  9.75545e-03
       H -1.46769e-02 -1.19041e-02 -4.54302e-03
       H  3.33793e-03  1.86966e-02 -4.65441e-03
       O -1.18808e-04 -1.38147e-02  1.05715e-02
       H -1.76356e-02  7.18393e-03 -4.77607e-03
       H  1.75748e-02  6.44932e-03 -5.42105e-03
       O -1.21736e-02  6.84288e-03  1.00575e-02
       H -2.80616e-03  2.22463e-03 -1.90375e-02
       H  1.46298e-02 -8.74469e-03  9.60095e-03
       O -1.06312e-03 -1.37332e-02 -1.04140e-02
       H -1.73458e-02  6.80732e-03  5.16402e-03
       H  1.76985e-02  6.67703e-03  4.77395e-03
       O  1.15970e-02  8.19799e-03 -9.25677e-03
       H  3.00558e-03  1.46458e-03  1.91854e-02
       H -1.43782e-02 -8.89795e-03 -1.00014e-02
       O -3.70138e-04  1.35534e-02 -9.52341e-03
       H -8.65734e-05  3.47864e-03  1.92984e-02
       H  1.33818e-04 -1.69978e-02 -9.74870e-03
       O  1.27854e-05  1.37578e-02 -1.04277e-02
       H -1.74872e-02 -6.37133e-03  5.45599e-03
       H  1.76541e-02 -7.22315e-03  4.63325e-03
       O  1.21346e-02  7.63280e-03 -9.87798e-03
       H -1.47368e-02  1.17790e-02  4.51273e-03
       H  3.27722e-03 -1.87115e-02  4.87343e-03
       O  1.25495e-02 -6.55134e-03  9.66946e-03
       H -1.44022e-02 -1.23342e-02 -4.66134e-03
       H  2.94821e-03  1.87047e-02 -4.63594e-03
       O -1.25141e-02  6.74699e-03  9.24846e-03
       H -2.80880e-03 -1.85589e-02 -5.05698e-03
       H  1.50016e-02  1.17059e-02 -4.54966e-03
       O -1.24242e-02  6.27583e-03  8.89471e-03
       H -2.85084e-03  1.81095e-03 -1.91299e-02
       H  1.49180e-02 -8.02348e-03  1.00280e-02
       O -1.15692e-03 -1.36587e-02 -1.00776e-02
       H -1.76311e-02  6.77349e-03  5.34129e-03
       H  1.79066e-02  6.64656e-03  4.52833e-03
       O  1.25855e-02  6.63628e-03 -1.00845e-02
       H  2.72241e-03  2.23918e-03  1.90570e-02
       H -1.44853e-02 -8.68868e-03 -9.60033e-03
       O  1.23343e-02  7.11751e-03  8.96649e-03
       H -1.48565e-02  1.19420e-02 -4.46928e-03
       H  2.99264e-03 -1.88044e-02 -4.51710e-03
       O  1.13861e-02 -7.90095e-03 -9.78204e-03
       H -1.46953e-02 -1.18727e-02  5.02249e-03
       H  3.32432e-03  1.88212e-02  4.50527e-03
       O  1.22605e-03  1.38523e-02  9.01370e-03
       H -1.34166e-04  3.25496e-03 -1.91385e-02
       H -6.70572e-04 -1.67988e-02  9.91249e-03
       O  4.62439e-05  1.44861e-02  9.24214e-03
       H -1.78596e-02 -7.04516e-03 -4.52359e-03
       H  1.75891e-02 -6.91023e-03 -4.45100e-03
       O -6.18608e-04 -1.42581e-02  1.02432e-02
       H -1.75828e-02  6.87511e-03 -4.73718e-03
       H  1.78010e-02  6.55514e-03 -4.75175e-03
       O -9.61875e-04 -1.39704e-02  9.34344e-03
       H  1.60162e-04 -3.16055e-03 -1.91359e-02
       H  5.03240e-04  1.69725e-02  9.73483e-03
       O  8.34917e-04  1.35351e-02  1.03114e-02
       H -3.43249e-04  3.46971e-03 -1.91517e-02
       H -1.26272e-04 -1.73058e-02  9.27995e-03
       O -1.11667e-02  6.58786e-03 -1.07182e-02
       H -3.47633e-03  2.08983e-03  1.90323e-02
       H  1.46969e-02 -8.42296e-03 -9.42217e-03
       O -3.74668e-04 -1.38238e-02  9.03006e-03
       H -1.77771e-02  6.92344e-03 -4.73798e-03
       H  1.77299e-02  6.89016e-03 -4.41531e-03
       O  1.25537e-02 -6.51329e-03 -9.76224e-03
       H -1.44406e-02 -1.24510e-02  4.71875e-03
       H  2.93233e-03  1.87432e-02  4.43946e-03
       O  1.19064e-02  6.76215e-03 -9.89027e-03
       H -1.44652e-02  1.21607e-02  5.19314e-03
       H  2.81647e-03 -1.87544e-02  4.59556e-03
       O -5.75972e-04  1.39859e-02  9.93718e-03
       H -1.75692e-02 -6.80673e-03 -4.60076e-03
       H  1.78309e-02 -6.34452e-03 -4.78760e-03
       O -1.24952e-02  6.66264e-03  9.47162e-03
       H -2.63136e-03 -1.88682e-02 -5.02761e-03
       H  1.48632e-02  1.17909e-02 -4.49801e-03
       O -1.97852e-04 -1.45147e-02  8.71294e-03
       H  1.51630e-05 -3.23127e-03 -1.90960e-02
       H -9.88289e-06  1.68361e-02  1.01351e-02
       O  1.11521e-02  7.76903e-03 -1.00388e-02
       H -1.46386e-02  1.17598e-02  5.13677e-03
       H  3.29117e-03 -1.87497e-02  4.46930e-03
       O -9.68625e-04 -1.40567e-02 -9.37150e-03
       H  1.68276e-04 -3.17079e-03  1.92448e-02
       H  5.03665e-04  1.69822e-02 -9.79939e-03
       O -1.20966e-02 -7.47637e-03 -9.92402e-03
       H -2.82141e-03 -1.99879e-03  1.90296e-02
       H  1.42823e-02  8.93836e-03 -9.77641e-03
       O -1.80972e-04  1.43467e-02 -9.19830e-03
       H -1.76775e-02 -7.06197e-03  4.43483e-03
       H  1.77614e-02 -6.77748e-03  4.49035e-03
       O  4.66474e-04 -1.41073e-02 -9.14610e-03
       H -1.76089e-02  7.01259e-03  4.28179e-03
       H  1.77094e-02  6.98591e-03  5.21475e-03
       O -9.35309e-05 -1.36607e-02 -9.65541e-03
       H -4.24547e-05 -3.39827e-03  1.93621e-02
       H  1.64773e-05  1.71278e-02 -9.71300e-03
       O -3.94051e-05  1.41651e-02 -1.01687e-02
       H -4.87143e-04  3.32008e-03  1.90953e-02
       H  5.71920e-04 -1.70967e-02 -9.41667e-03
       O  1.21624e-02 -6.36584e-03 -9.36772e-03
       H -1.47904e-02 -1.19643e-02  4.59919e-03
       H  2.78847e-03  1.86782e-02  5.02502e-03
       O -1.20658e-02 -6.13967e-03  1.02649e-02
       H -3.07307e-03 -2.10262e-03 -1.91677e-02
       H  1.47505e-02  8.46780e-03  9.63162e-03
       O -1.29791e-02 -6.79153e-03  1.03654e-02
       H  1.44943e-02 -1.19631e-02 -4.97660e-03
       H -2.52815e-03  1.86904e-02 -4.74334e-03
       O -1.27221e-03 -1.36355e-02  1.01016e-02
       H -1.73984e-02  6.85475e-03 -5.19123e-03
       H  1.78801e-02  6.65138e-03 -4.63557e-03
       O  1.17775e-02  7.82972e-03  9.52949e-03
       H  2.86805e-03  1.43275e-03 -1.92541e-02
       H -1.46045e-02 -8.97884e-03  9.53850e-03
       O -1.15613e-02 -7.50402e-03  9.00299e-03
       H -2.90124e-03 -1.60058e-03 -1.91514e-02
       H  1.42661e-02  8.81021e-03  9.93691e-03
       O -1.07437e-02  7.43905e-03 -1.01884e-02
       H -3.49190e-03  1.43654e-03  1.92351e-02
       H  1.45984e-02 -8.63359e-03 -9.54228e-03
       O  1.14657e-02  7.77705e-03  1.04526e-02
       H -1.46429e-02  1.15394e-02 -5.19309e-03
       H  3.08108e-03 -1.86067e-02 -4.78411e-03
       O  1.23931e-02 -7.11650e-03 -8.96128e-03
       H -1.49014e-02 -1.19456e-02  4.32926e-03
       H  3.09087e-03  1.87538e-02  4.50786e-03
       O -1.27760e-02  5.86115e-03 -1.01958e-02
       H -2.71363e-03 -1.85373e-02  5.45692e-03
       H  1.46244e-02  1.20958e-02  4.81394e-03
       O -1.94988e-04  1.40531e-02  1.04368e-02
       H -1.75397e-02 -7.05106e-03 -4.90391e-03
       H  1.76004e-02 -6.52304e-03 -5.42793e-03
       O -1.25777e-02 -6.68724e-03 -9.97656e-03
       H -3.16088e-03 -1.41305e-03  1.90662e-02
       H  1.49764e-02  7.99516e-03 -9.70251e-03
       O -1.19457e-02  8.09880e-03  9.29615e-03
       H -2.83238e-03  1.28692e-03 -1.93060e-02
       H  1.44746e-02 -9.03860e-03  9.88609e-03
       O -1.16402e-02 -7.61707e-03  8.99932e-03
       H -2.93273e-03 -1.48685e-03 -1.90931e-02
       H  1.43356e-02  8.79175e-03  9.96736e-03
       O -1.19034e-02  6.83368e-03 -9.96751e-03
       H -3.34401e-03  1.41257e-03  1.91612e-02
       H  1.47923e-02 -8.05762e-03 -9.65263e-03
       O  1.10824e-02  7.54609e-03  1.03133e-02
       H -1.46030e-02  1.18154e-02 -5.05534e-03
       H  3.28092e-03 -1.86045e-02 -4.69982e-03
       O  1.21675e-02 -7.66337e-03 -1.00622e-02
       H -1.47704e-02 -1.17197e-02  4.63925e-03
       H  3.25647e-03  1.85971e-02  4.94284e-03
       O  1.21399e-02  6.40944e-03 -9.28070e-03
       H -1.49063e-02  1.18997e-02  4.39888e-03
       H  3.02127e-03 -1.87261e-02  5.21953e-03
       O  1.18521e-02 -6.97141e-03  9.96888e-03
       H -1.48202e-02 -1.17833e-02 -4.61346e-03
       H  3.35448e-03  1.85442e-02 -5.29467e-03
       O  1.14089e-02 -7.69062e-03 -9.00305e-03
       H  3.03099e-03 -1.77272e-03  1.90972e-02
       H -1.44570e-02  8.82312e-03 -1.00635e-02
       O  4.06625e-04 -1.35347e-02  1.09655e-02
       H -9.62923e-05 -3.78141e-03 -1.90256e-02
       H -4.80900e-05  1.70434e-02  9.33372e-03
       O -6.71766e-04 -1.46623e-02 -1.01651e-02
       H -1.74673e-02  7.13754e-03  4.70537e-03
       H  1.77293e-02  6.77309e-03  4.85139e-03
       O -8.73080e-04 -1.42662e-02 -9.24636e-03
       H -5.39028e-05 -3.22381e-03  1.92190e-02
       H  5.74425e-04  1.68134e-02 -9.96775e-03
       O  1.23104e-02 -6.35605e-03 -1.04735e-02
       H  2.82312e-03 -1.97429e-03  1.91219e-02
       H -1.49649e-02  8.44469e-03 -9.38046e-03
       O  1.18147e-02 -7.06528e-03 -1.05404e-02
       H -1.49761e-02 -1.16142e-02  4.76936e-03
       H  3.20194e-03  1.83840e-02  5.39413e-03
       O -1.19485e-02 -6.28437e-03  1.08532e-02
       H -3.19918e-03 -2.21229e-03 -1.89944e-02
       H  1.49171e-02  8.40189e-03  9.37808e-03
       O -1.18858e-02  6.49591e-03 -1.09444e-02
       H -3.30711e-03  1.98513e-03  1.91883e-02
       H  1.48266e-02 -8.49219e-03 -9.48004e-03
       O -1.28685e-02 -6.58610e-03 -9.74694e-03
       H -2.80174e-03 -1.60777e-03  1.92084e-02
       H  1.50124e-02  8.19095e-03 -9.61887e-03
       O -1.20083e-02 -6.97159e-03 -1.05451e-02
       H  1.45864e-02 -1.19345e-02  5.43431e-03
       H -2.61518e-03  1.86460e-02  4.72031e-03
       O -1.78784e-04  1.37625e-02  9.74659e-03
       H -2.89701e-04  3.65045e-03 -1.91271e-02
       H  3.47464e-04 -1.69242e-02  9.80854e-03
       O  1.09399e-02 -7.71384e-03  1.03891e-02
       H -1.45390e-02 -1.17190e-02 -5.20006e-03
       H  3.25609e-03  1.87419e-02 -4.68915e-03
       O  1.21177e-02 -7.16972e-03 -1.00678e-02
       H  3.18702e-03 -1.31541e-03  1.90292e-02
       H -1.49277e-02  8.36648e-03 -9.40422e-03
       O  1.25049e-02  6.75138e-03  1.00563e-02
       H  3.17583e-03  1.46481e-03 -1.91628e-02
       H -1.48518e-02 -8.01435e-03  9.69047e-03
       O -1.28673e-02 -6.71732e-03  9.62044e-03
       H -2.78274e-03 -1.56968e-03 -1.92014e-02
       H  1.49482e-02  8.10861e-03  9.73049e-03
       O -1.17991e-02 -8.06933e-03  1.05238e-02
       H  1.48078e-02 -1.14263e-02 -5.31694e-03
       H -2.90297e-03  1.86046e-02 -4.82674e-03
       O -1.25110e-02  7.23202e-03  9.33158e-03
       H -2.98089e-03 -1.87278e-02 -4.51543e-03
       H  1.50169e-02  1.18180e-02 -4.52160e-03
       O -1.27153e-02  7.07062e-03  1.03771e-02
       H -3.00403e-03  1.44899e-03 -1.91869e-02
       H  1.49776e-02 -8.18704e-03  9.37140e-03
       O -1.08901e-02 -7.48767e-03  1.00244e-02
       H -3.31749e-03 -1.40830e-03 -1.92148e-02
       H  1.46247e-02  8.56770e-03  9.56199e-03
       O  1.07707e-03 -1.30630e-02 -1.01670e-02
       H -3.93573e-04 -3.69106e-03  1.92632e-02
       H -2.90004e-04  1.69765e-02 -9.52475e-03
       O  1.23097e-02  5.66143e-03  1.01740e-02
       H -1.46115e-02  1.22823e-02 -4.51097e-03
       H  2.91758e-03 -1.85262e-02 -5.22827e-03
       O  5.75140e-06  1.46830e-02 -9.07923e-03
       H -1.76103e-02 -6.93800e-03  4.44738e-03
       H  1.78470e-02 -7.01650e-03  4.59435e-03
       O  1.19629e-02 -6.83903e-03  9.85788e-03
       H  3.01352e-03 -1.94338e-03 -1.92607e-02
       H -1.44809e-02  8.72697e-03  9.73561e-03
       O  1.14049e-02  7.92654e-03 -1.06324e-02
       H  3.35535e-03  1.15636e-03  1.92451e-02
       H -1.47722e-02 -8.91029e-03 -9.32527e-03
       O -6.76882e-04  1.38289e-02 -1.06860e-02
       H  4.00748e-04  3.50257e-03  1.91368e-02
       H  4.36777e-05 -1.72176e-02 -9.17441e-03
       O -1.07000e-03  1.37493e-02 -1.05058e-02
       H -1.73401e-02 -6.88167e-03  5.21580e-03
       H  1.76846e-02 -6.69261e-03  4.83815e-03
       O  1.24528e-02  6.28893e-03 -9.53043e-03
       H -1.48896e-02  1.18950e-02  4.40788e-03
       H  2.66987e-03 -1.86640e-02  5.18281e-03
       O  1.23510e-02  6.29370e-03 -1.05484e-02
       H  2.81588e-03  2.03161e-03  1.91311e-02
       H -1.49898e-02 -8.42006e-03 -9.38433e-03
       O  1.25942e-02  6.47389e-03  9.61818e-03
       H -1.44072e-02  1.23762e-02 -4.73971e-03
       H  2.88568e-03 -1.86490e-02 -4.56267e-03
       O  1.60191e-04  1.36849e-02 -9.90259e-03
       H -1.77390e-02 -6.27263e-03  5.21240e-03
       H  1.76720e-02 -6.90244e-03  4.59538e-03
       O  4.78176e-04  1.42152e-02  9.89772e-03
       H -5.17579e-04  3.46728e-03 -1.90267e-02
       H  2.89887e-04 -1.69161e-02  9.72695e-03
       O -1.23898e-02  7.02412e-03 -9.84050e-03
       H -3.07723e-03  1.49177e-03  1.89982e-02
       H  1.47864e-02 -8.10598e-03 -9.67471e-03
       O -1.13764e-02  8.19117e-03  1.02997e-02
       H -3.20005e-03 -1.87537e-02 -4.80771e-03
       H  1.47636e-02  1.15519e-02 -5.33951e-03
       O -1.16853e-02 -7.31352e-03 -9.10859e-03
       H  1.46807e-02 -1.18418e-02  4.98743e-03
       H -2.98210e-03  1.87577e-02  4.40047e-03
       O  1.24181e-02  7.11827e-03 -8.89577e-03
       H -1.48383e-02  1.20001e-02  4.35437e-03
       H  3.03736e-03 -1.87688e-02  4.49522e-03
       O  1.25358e-02  7.52997e-03 -1.02691e-02
       H  3.11680e-03  1.21606e-03  1.90532e-02
       H -1.50512e-02 -8.32730e-03 -9.39434e-03
       O  1.26827e-02 -7.25859e-03 -8.63974e-03
       H  2.78182e-03 -1.52008e-03  1.91315e-02
       H -1.46453e-02  8.41307e-03 -1.01974e-02
       O -4.26294e-04  1.37575e-02 -9.19174e-03
       H -1.76627e-02 -6.68585e-03  5.05296e-03
       H  1.77455e-02 -6.92951e-03  4.36684e-03
       O -1.11678e-02  7.72209e-03 -9.98939e-03
       H -3.39610e-03 -1.87282e-02  4.74998e-03
       H  1.47600e-02  1.17030e-02  4.95036e-03
       O -1.20258e-02 -7.38079e-03  9.35604e-03
       H  1.46139e-02 -1.17648e-02 -5.14105e-03
       H -2.69155e-03  1.88259e-02 -4.68317e-03
       O -5.76792e-05  1.33704e-02 -1.09336e-02
       H -9.30270e-05  3.76682e-03  1.89120e-02
       H -1.28739e-05 -1.71897e-02 -9.26884e-03
       O -1.28223e-02  6.20759e-03  9.37346e-03
       H -2.70468e-03  1.87693e-03 -1.92639e-02
       H  1.48666e-02 -8.00066e-03  9.86179e-03
       O  1.51442e-04 -1.41917e-02 -1.07406e-02
       H -1.75223e-02  6.53399e-03  5.63759e-03
       H  1.74332e-02  7.25768e-03  4.82772e-03
       O -1.16068e-03 -1.39301e-02 -9.25265e-03
       H  1.26262e-04 -3.37088e-03  1.93278e-02
       H  6.21304e-04  1.69058e-02 -9.90836e-03
       O -3.02295e-04  1.35392e-02 -9.55837e-03
       H  3.10002e-04  3.50571e-03  1.93313e-02
       H  5.93481e-05 -1.70126e-02 -9.74282e-03
       O -7.13961e-04  1.41599e-02 -1.02021e-02
       H -1.75406e-02 -6.94777e-03  4.68975e-03
       H  1.77553e-02 -6.38058e-03  4.72402e-03
       O -1.25572e-02 -6.75221e-03  1.00084e-02
       H -2.82055e-03 -2.10083e-03 -1.91291e-02
       H  1.45312e-02  8.67769e-03  9.70211e-03
       O -1.14544e-03  1.33240e-02  1.02872e-02
       H -1.74642e-02 -6.78978e-03 -5.19133e-03
       H  1.79041e-02 -6.54101e-03 -4.75428e-03
       O  1.21078e-02  7.88308e-03  9.89427e-03
       H -1.48807e-02  1.17262e-02 -4.66580e-03
       H  3.33687e-03 -1.86822e-02 -4.62027e-03
       O  1.25596e-02  6.51089e-03  9.28070e-03
       H  2.83930e-03  1.75371e-03 -1.91584e-02
       H -1.48725e-02 -8.05561e-03  9.91108e-03
       O  1.19861e-02  6.86676e-03 -1.03411e-02
       H -1.49324e-02  1.17500e-02  4.86953e-03
       H  3.18964e-03 -1.83137e-02  5.38886e-03
       O  1.20794e-02 -7.59426e-03  1.01399e-02
       H -1.47095e-02 -1.16942e-02 -4.72762e-03
       H  3.35255e-03  1.85049e-02 -4.91121e-03
       O -1.24557e-02  5.97567e-03  1.04060e-02
       H -2.71983e-03 -1.83999e-02 -5.22048e-03
       H  1.46003e-02  1.20292e-02 -4.83554e-03
       O -1.18849e-02  5.64675e-03  9.94755e-03
       H -3.02329e-03  2.21145e-03 -1.92249e-02
       H  1.48628e-02 -8.26376e-03  9.63478e-03
       O  1.17101e-02 -6.66551e-03  9.80980e-03
       H  2.96277e-03 -1.72176e-03 -1.93578e-02
       H -1.50211e-02  8.57390e-03  9.39601e-03
       O  1.27373e-02 -7.19433e-03  9.28206e-03
       H -1.49735e-02 -1.18912e-02 -4.56456e-03
       H  2.65235e-03  1.89290e-02 -4.53860e-03
       O -4.05568e-04  1.33899e-02 -1.10057e-02
       H  5.22161e-05  3.90865e-03  1.91132e-02
       H  1.06725e-04 -1.69988e-02 -9.30205e-03
       O -1.14900e-02  6.74336e-03  9.44708e-03
       H -3.01946e-03  1.83109e-03 -1.93182e-02
       H  1.48987e-02 -8.62136e-03  9.79356e-03
       O  1.09992e-02 -7.31180e-03  1.00327e-02
       H  3.51808e-03 -1.41642e-03 -1.92369e-02
       H -1.47611e-02  8.54934e-03  9.62678e-03
       O  1.25808e-02  7.14006e-03 -8.80424e-03
       H  2.73416e-03  1.69562e-03  1.91761e-02
       H -1.43490e-02 -8.36708e-03 -1.00728e-02
       O -1.28220e-02  5.85181e-03  1.02468e-02
       H -2.70010e-03 -1.85377e-02 -5.36291e-03
       H  1.46860e-02  1.21116e-02 -4.61438e-03
       O -1.16765e-02 -7.63895e-03 -9.76680e-03
       H  1.46291e-02 -1.20179e-02  4.60990e-03
       H -3.50338e-03  1.87531e-02  4.44763e-03
       O -1.19717e-02  7.11806e-03 -1.04803e-02
       H -3.30113e-03 -1.84496e-02  5.34852e-03
       H  1.51712e-02  1.16086e-02  4.72372e-03
       O -1.19150e-02 -7.51032e-03  9.56288e-03
       H  1.47062e-02 -1.19806e-02 -4.60249e-03
       H -3.43817e-03  1.85866e-02 -4.71361e-03
       O  6.18142e-04 -1.40213e-02  9.94528e-03
       H -1.78121e-02  6.22815e-03 -4.79590e-03
       H  1.76311e-02  6.83659e-03 -4.51224e-03
       O  1.18361e-02  6.99779e-03  9.67589e-03
       H  2.89510e-03  2.23040e-03 -1.89769e-02
       H -1.43121e-02 -8.73137e-03  9.79142e-03
       O  1.14883e-02  6.51323e-03 -1.04285e-02
       H -1.42671e-02  1.21989e-02  5.26830e-03
       H  2.88856e-03 -1.87594e-02  4.54235e-03
       O  1.66304e-04  1.47649e-02  9.14100e-03
       H -1.77140e-02 -6.88058e-03 -4.45644e-03
       H  1.76973e-02 -7.02576e-03 -4.60576e-03
       O -1.18374e-02 -7.81196e-03 -9.31493e-03
       H -2.90263e-03 -1.67019e-03  1.92211e-02
       H  1.42838e-02  8.75605e-03 -9.84665e-03
       O  1.17510e-03 -1.31046e-02  1.00792e-02
       H -5.03195e-04 -3.71868e-03 -1.92296e-02
       H -1.48126e-04  1.68559e-02  9.57865e-03
       O  2.79022e-04  1.38002e-02  1.13992e-02
       H -8.89349e-05  3.60567e-03 -1.90758e-02
       H -1.10480e-04 -1.72504e-02  8.99867e-03
       O -1.19405e-02  6.94817e-03 -9.58583e-03
       H -3.23213e-03  1.47785e-03  1.89984e-02
       H  1.47162e-02 -8.08728e-03 -9.87012e-03
       O  1.21899e-02 -6.99331e-03 -1.01718e-02
       H  2.80012e-03 -2.06881e-03  1.91333e-02
       H -1.46530e-02  8.88653e-03 -9.40944e-03
       O  1.23053e-02 -7.16505e-03 -8.84952e-03
       H -1.48931e-02 -1.20342e-02  4.24525e-03
       H  3.15844e-03  1.89171e-02  4.53172e-03
       O  1.17659e-02  7.40571e-03 -9.72017e-03
       H -1.47048e-02  1.19330e-02  4.32034e-03
       H  3.47791e-03 -1.86115e-02  4.71350e-03
       O  1.20293e-02 -7.56772e-03  9.85367e-03
       H -1.46601e-02 -1.18150e-02 -4.42718e-03
       H  3.36416e-03  1.86676e-02 -4.87510e-03
       O -1.23330e-02 -7.39375e-03 -9.96299e-03
       H -3.31137e-03 -1.10579e-03  1.91488e-02
       H  1.48432e-02  8.24272e-03 -9.68826e-03
       O -1.21945e-02  7.02999e-03  9.91591e-03
       H -3.15506e-03  1.42554e-03 -1.89927e-02
       H  1.49502e-02 -8.17988e-03  9.67092e-03
       O  1.11510e-02 -7.51692e-03  1.02257e-02
       H  3.24805e-03 -1.35533e-03 -1.91732e-02
       H -1.47607e-02  8.69362e-03  9.48120e-03
       O  1.18771e-02 -7.62862e-03  9.26266e-03
       H -1.47608e-02 -1.18243e-02 -5.18033e-03
       H  2.72207e-03  1.88734e-02 -4.27245e-03
       O  1.22586e-02  7.70393e-03  1.01596e-02
       H -1.51081e-02  1.17020e-02 -4.67764e-03
       H  3.18905e-03 -1.86389e-02 -4.77522e-03
       O  1.21992e-02  5.85614e-03  1.01708e-02
       H  2.91792e-03  2.36534e-03 -1.91803e-02
       H -1.47302e-02 -8.40983e-03  9.61218e-03
       O -7.26638e-04 -1.40619e-02 -9.75774e-03
       H -1.76989e-02  6.64423e-03  4.54106e-03
       H  1.80778e-02  6.38782e-03  4.48821e-03
       O -1.27228e-02 -6.47680e-03  1.01615e-02
       H  1.43637e-02 -1.21225e-02 -4.71018e-03
       H -2.64956e-03  1.86895e-02 -4.69962e-03
       O  3.49219e-04  1.40986e-02 -9.99874e-03
       H  2.36787e-04  3.49292e-03  1.91946e-02
       H -3.93453e-04 -1.67583e-02 -9.66787e-03
       O  1.18894e-02  7.05169e-03  9.80495e-03
       H  2.92891e-03  2.10392e-03 -1.91509e-02
       H -1.44404e-02 -8.77098e-03  9.77428e-03
       O -1.09513e-02 -7.18959e-03  9.96278e-03
       H -3.52060e-03 -1.41053e-03 -1.91146e-02
       H  1.45916e-02  8.49314e-03  9.66767e-03
       O -1.30339e-02  6.03848e-03 -9.39966e-03
       H -2.67112e-03  1.82282e-03  1.93092e-02
       H  1.48519e-02 -7.97014e-03 -9.87076e-03
       O  3.77739e-04  1.50229e-02 -9.01630e-03
       H -9.33329e-05  2.98451e-03  1.90859e-02
       H -9.18940e-06 -1.67981e-02 -1.00259e-02
       O -1.19393e-02 -6.78171e-03 -1.04466e-02
       H  1.42306e-02 -1.20550e-02  5.31129e-03
       H -2.54666e-03  1.88449e-02  4.64370e-03
       O -1.22172e-02 -7.18250e-03  9.93296e-03
       H -3.25146e-03 -1.18366e-03 -1.91039e-02
       H  1.48258e-02  8.11611e-03  9.69212e-03
       O -1.13648e-02  7.49918e-03 -1.03715e-02
       H -3.33426e-03  1.57365e-03  1.93330e-02
       H  1.47582e-02 -8.69855e-03 -9.52461e-03
       O -1.28499e-02  6.62507e-03  9.94080e-03
       H -2.76399e-03 -1.87963e-02 -4.79835e-03
       H  1.44705e-02  1.21687e-02 -4.74937e-03
       O -1.11815e-02 -8.01806e-03 -1.05678e-02
       H  1.47325e-02 -1.15126e-02  5.40452e-03
       H -3.15868e-03  1.86230e-02  4.78910e-03
       O -1.23413e-02  6.30671e-03 -9.58568e-03
       H -2.71178e-03 -1.86921e-02  5.20326e-03
       H  1.48425e-02  1.18412e-02  4.47399e-03
       O -1.21814e-02  5.91226e-03 -1.02803e-02
       H -2.77101e-03  2.23785e-03  1.90725e-02
       H  1.49500e-02 -8.38948e-03 -9.46128e-03
       O  1.29413e-02 -6.77719e-03 -9.59360e-03
       H  2.77772e-03 -1.55386e-03  1.90887e-02
       H -1.50558e-02  8.24128e-03 -9.57585e-03
       O  1.22493e-02 -7.00716e-03 -9.01029e-03
       H -1.48609e-02 -1.20408e-02  4.42058e-03
       H  2.98775e-03  1.87078e-02  4.32434e-03
       O -4.65335e-04  1.49519e-02  9.10326e-03
       H  8.30093e-06  3.08676e-03 -1.91341e-02
       H  1.17446e-04 -1.67434e-02  9.97908e-03
       O  1.21475e-02 -5.53943e-03  1.03944e-02
       H -1.44550e-02 -1.23252e-02 -4.60099e-03
       H  2.84363e-03  1.84160e-02 -5.16231e-03
       O -1.23708e-02 -6.97888e-03 -9.83601e-03
       H -3.16347e-03 -1.47229e-03  1.90456e-02
       H  1.47456e-02  8.04892e-03 -9.83851e-03
       O  2.09491e-04 -1.36850e-02  1.14620e-02
       H -1.28291e-04 -3.76693e-03 -1.91923e-02
       H -7.67774e-05  1.71624e-02  8.95903e-03
       O -1.19946e-02 -7.02797e-03  9.63758e-03
       H -3.11393e-03 -1.51264e-03 -1.90726e-02
       H  1.48151e-02  8.32264e-03  9.79956e-03
       O -1.13684e-02  6.36963e-03 -1.08926e-02
       H -3.53383e-03  1.91982e-03  1.92088e-02
       H  1.47853e-02 -8.39827e-03 -9.38132e-03
       O  1.02319e-04 -1.45161e-02  8.75319e-03
       H -1.79286e-02  6.86926e-03 -4.31988e-03
       H  1.78061e-02  6.74756e-03 -4.44982e-03
       O  1.28124e-02 -6.64819e-03 -1.01364e-02
       H -1.42929e-02 -1.21534e-02  4.80241e-03
       H  2.77591e-03  1.87259e-02  4.86140e-03
       O -1.09849e-03  1.37514e-02  9.03609e-03
       H  1.90011e-04  3.41363e-03 -1.91959e-02
       H  5.55448e-04 -1.68172e-02  1.00103e-02
       O  1.19577e-02 -7.39936e-03  9.43303e-03
       H -1.46674e-02 -1.17045e-02 -5.01236e-03
       H  2.60298e-03  1.88864e-02 -4.54001e-03
       O  1.08447e-02 -7.40930e-03 -9.94560e-03
       H  3.58328e-03 -1.57872e-03  1.90698e-02
       H -1.46592e-02  8.59069e-03 -9.72840e-03
       O  1.31711e-02  7.20214e-03  8.91231e-03
       H  2.65867e-03  1.54062e-03 -1.90931e-02
       H -1.45458e-02 -8.25888e-03  1.00470e-02
       O  1.21291e-02 -8.35593e-03  9.47328e-03
       H  2.70831e-03 -1.35017e-03 -1.90718e-02
       H -1.45280e-02  9.13891e-03  9.55176e-03
       O  1.22919e-02 -7.09365e-03  8.89872e-03
       H -1.48018e-02 -1.19665e-02 -4.36359e-03
       H  3.11800e-03  1.87465e-02 -4.51802e-03
       O -1.13956e-02  7.45321e-03  9.44963e-03
       H -3.04520e-03 -1.90303e-02 -4.32476e-03
       H  1.46793e-02  1.18059e-02 -5.03880e-03
       O -1.11613e-02  7.55387e-03  1.02612e-02
       H -3.32302e-03  1.28909e-03 -1.90809e-02
       H  1.47829e-02 -8.77415e-03  9.40442e-03
       O -2.66027e-04  1.45873e-02  1.02820e-02
       H -3.11861e-04  3.26809e-03 -1.90582e-02
       H  4.01980e-04 -1.71172e-02  9.35814e-03
       O  1.21529e-02 -7.09236e-03  9.07436e-03
       H -1.46366e-02 -1.20748e-02 -4.54305e-03
       H  3.02555e-03  1.87678e-02 -4.47541e-03
       O -1.20472e-02 -6.14487e-03 -1.03735e-02
       H -3.09797e-03 -2.08596e-03  1.92478e-02
       H  1.48480e-02  8.43257e-03 -9.49020e-03
       O -1.21081e-02  6.66327e-03  9.69261e-03
       H -3.14440e-03  1.41488e-03 -1.91067e-02
       H  1.48609e-02 -7.98688e-03  9.71783e-03
       O -1.88791e-04 -1.39700e-02 -1.02434e-02
       H -1.76549e-02  7.19235e-03  4.74183e-03
       H  1.75934e-02  6.43610e-03  5.26921e-03
       O  1.19299e-03 -1.46501e-02 -9.60158e-03
       H -2.46188e-04 -3.06610e-03  1.91875e-02
       H -6.29317e-04  1.71383e-02 -9.62652e-03
       O  1.24157e-02  7.01350e-03  9.02844e-03
       H -1.48425e-02  1.20519e-02 -4.44811e-03
       H  3.08933e-03 -1.87139e-02 -4.50770e-03
       O  1.22232e-02 -7.23837e-03 -1.06234e-02
       H -1.49784e-02 -1.14447e-02  4.79343e-03
       H  3.01083e-03  1.84389e-02  5.47835e-03
       O  2.62026e-04 -1.44905e-02 -8.98408e-03
       H -1.77357e-02  6.79670e-03  4.45109e-03
       H  1.76495e-02  6.90960e-03  4.56950e-03
       O  8.09832e-05 -1.31502e-02 -9.24558e-03
       H  7.11269e-05 -3.63903e-03  1.92621e-02
       H -3.57377e-05  1.70418e-02 -9.94089e-03
       O  1.15076e-02 -7.78384e-03 -9.02520e-03
       H  2.90236e-03 -1.65608e-03  1.91790e-02
       H -1.43846e-02  8.87974e-03 -1.00611e-02
       O  6.54245e-04  1.41181e-02 -9.73239e-03
       H -1.78381e-02 -6.33916e-03  4.64700e-03
       H  1.76628e-02 -6.99654e-03  4.46749e-03
       O  1.13363e-02 -7.05316e-03  1.10374e-02
       H  3.53767e-03 -1.83209e-03 -1.91324e-02
       H -1.46165e-02  8.58595e-03  9.42071e-03
       O -1.85846e-04 -1.35895e-02 -1.09024e-02
       H  2.26968e-04 -3.74486e-03  1.91169e-02
       H  7.50514e-06  1.70705e-02 -9.31797e-03
       O -1.18572e-02  7.04568e-03  9.76754e-03
       H -3.48579e-03 -1.86371e-02 -5.12985e-03
       H  1.49012e-02  1.18299e-02 -4.39724e-03
       O -1.23705e-02 -5.90604e-03 -9.98220e-03
       H  1.44169e-02 -1.22322e-02  4.74248e-03
       H -2.91254e-03  1.86259e-02  5.10211e-03
       O  1.27248e-02 -7.00974e-03  1.01141e-02
       H  2.61918e-03 -2.09694e-03 -1.90734e-02
       H -1.47095e-02  8.71158e-03  9.59869e-03
       O  6.11805e-04  1.42609e-02  9.81198e-03
       H -1.79169e-02 -6.42861e-03 -4.76555e-03
       H  1.76601e-02 -7.03740e-03 -4.38757e-03
       O  7.69918e-04 -1.42045e-02  9.96215e-03
       H -1.78813e-02  6.44418e-03 -4.68947e-03
       H  1.76508e-02  7.05053e-03 -4.54772e-03
       O -7.29489e-07 -1.30905e-02  9.28979e-03
       H  1.09204e-04 -3.60433e-03 -1.92099e-02
       H  9.48459e-05  1.68937e-02  9.79448e-03
       O -1.17457e-02  6.61454e-03 -1.00337e-02
       H -2.80354e-03 -1.87990e-02  4.32264e-03
       H  1.42805e-02  1.23133e-02  5.36284e-03
       O -8.47402e-05  1.41909e-02  9.03380e-03
       H -1.77742e-02 -6.72015e-03 -4.48208e-03
       H  1.77948e-02 -6.73681e-03 -4.44477e-03
       O  1.21993e-02 -5.80299e-03 -1.03144e-02
       H  2.74732e-03 -2.49903e-03  1.91709e-02
       H -1.47425e-02  8.47217e-03 -9.51946e-03
       O -1.55760e-04 -1.37863e-02  9.77075e-03
       H  4.31842e-04 -3.48947e-03 -1.91782e-02
       H -3.49848e-04  1.69084e-02  9.68981e-03
       O  1.26724e-02 -7.11446e-03  1.03859e-02
       H  2.63000e-03 -2.07236e-03 -1.91475e-02
       H -1.46551e-02  8.74368e-03  9.32003e-03
       O  9.21919e-04  1.42574e-02  1.03415e-02
       H -1.77646e-02 -6.42712e-03 -4.89078e-03
       H  1.74841e-02 -7.08378e-03 -4.71574e-03
       O -1.18961e-02 -6.98495e-03 -9.76857e-03
       H -3.21374e-03 -1.59741e-03  1.90861e-02
       H  1.47548e-02  8.15819e-03 -9.73604e-03
       O  1.65316e-04 -1.37613e-02  9.82027e-03
       H -3.98420e-04 -3.56630e-03 -1.91705e-02
       H  2.70347e-04  1.69464e-02  9.70377e-03
       O -1.17599e-02  7.50283e-03 -9.66074e-03
       H -3.54329e-03 -1.87196e-02  4.41945e-03
       H  1.46502e-02  1.20954e-02  4.52984e-03
       O -1.24693e-02 -6.58492e-03  9.46289e-03
       H  1.44311e-02 -1.22458e-02 -4.52283e-03
       H -3.03274e-03  1.87634e-02 -4.57931e-03
       O  1.21685e-02 -6.16604e-03 -1.03058e-02
       H  3.04639e-03 -2.00966e-03  1.92923e-02
       H -1.48598e-02  8.48243e-03 -9.57753e-03
       O  1.22230e-02  7.07934e-03  1.00443e-02
       H  3.16682e-03  1.37615e-03 -1.90018e-02
       H -1.49396e-02 -8.33676e-03  9.41109e-03
       O  1.58957e-05 -1.38484e-02 -1.02892e-02
       H -1.76088e-02  6.39498e-03  5.48847e-03
       H  1.75350e-02  6.98414e-03  4.68303e-03
       O -1.19991e-02 -7.00131e-03  1.04043e-02
       H  1.44151e-02 -1.20153e-02 -5.62035e-03
       H -2.68984e-03  1.86190e-02 -4.62478e-03
       O -1.19501e-02  6.89474e-03  1.06076e-02
       H -2.68028e-03 -1.86350e-02 -4.72140e-03
       H  1.45841e-02  1.19878e-02 -5.54875e-03
       O -1.23414e-02  5.45026e-03  1.05776e-02
       H -2.86991e-03  2.32510e-03 -1.93760e-02
       H  1.49663e-02 -8.15856e-03  9.41229e-03
       O  1.14909e-03 -1.32938e-02 -1.02691e-02
       H -1.78094e-02  6.42958e-03  4.59833e-03
       H  1.74236e-02  6.77677e-03  5.09224e-03
       O  1.27078e-02  7.02782e-03 -8.57642e-03
       H  2.74003e-03  1.75122e-03  1.90458e-02
       H -1.44472e-02 -8.21753e-03 -1.02262e-02
       O -2.56542e-04  1.45821e-02 -8.67948e-03
       H  3.60694e-05  3.08232e-03  1.90515e-02
       H  1.07367e-04 -1.66757e-02 -1.01032e-02