576
# CELL(abcABC):   34.06844    44.25621    27.81677    90.00000    90.00000    90.00000  Step:           0  Bead:       0 forces{atomic_unit}  cell{atomic_unit}
       O  1.19048e-02 -7.09035e-03  9.66252e-03
       H  3.32102e-03 -1.33842e-03 -1.91131e-02
       H -1.47751e-02  8.14097e-03  9.76380e-03
       O  1.21849e-02  6.15571e-03 -1.02704e-02
       H  2.96552e-03  2.03555e-03  1.92606e-02
       H -1.48658e-02 -8.37784e-03 -9.52740e-03
       O -4.60402e-05  1.31727e-02 -9.33398e-03
       H  2.19748e-04  3.67101e-03  1.92589e-02
       H  9.68658e-07 -1.70349e-02 -9.85892e-03
       O -1.17375e-03  1.40967e-02 -1.07313e-02
       H -1.73250e-02 -6.98146e-03  5.44109e-03
       H  1.76704e-02 -6.68194e-03  4.93938e-03
       O  4.31782e-04  1.41317e-02  1.01756e-02
       H -4.54178e-04  3.53167e-03 -1.91994e-02
       H  1.76276e-04 -1.69336e-02  9.62820e-03
       O -1.09084e-02  7.36597e-03 -9.95354e-03
       H -3.41910e-03  1.67960e-03  1.91861e-02
       H  1.46050e-02 -8.70103e-03 -9.66499e-03
       O  1.26580e-02  7.21654e-03  8.56546e-03
       H -1.48660e-02  1.20300e-02 -4.26138e-03
       H  2.97907e-03 -1.88799e-02 -4.42926e-03
       O  1.18015e-02 -7.54396e-03 -9.90782e-03
       H -1.45871e-02 -1.19588e-02  4.61249e-03
       H  3.40413e-03  1.86470e-02  4.63273e-03
       O -1.19837e-02  6.79204e-03 -1.04792e-02
       H -2.64077e-03 -1.87169e-02  4.72479e-03
       H  1.43577e-02  1.19829e-02  5.42189e-03
       O -2.83702e-04 -1.43441e-02 -1.03316e-02
       H  5.81638e-04 -3.48762e-03  1.91432e-02
       H -2.90613e-04  1.70227e-02 -9.59175e-03
       O -2.07395e-04 -1.36170e-02  1.03040e-02
       H -1.75775e-02  6.88873e-03 -4.76971e-03
       H  1.77130e-02  6.49207e-03 -5.31343e-03
       O -1.23991e-02 -5.76809e-03 -9.96469e-03
       H  1.46035e-02 -1.21584e-02  4.55913e-03
       H -2.81529e-03  1.84824e-02  5.10618e-03
       O -3.94033e-04 -1.44553e-02 -9.66997e-03
       H -1.75098e-02  7.12557e-03  5.23007e-03
       H  1.75604e-02  7.23694e-03  4.62496e-03
       O  1.19907e-03 -1.42382e-02 -9.19818e-03
       H -1.09282e-04 -3.33303e-03  1.91688e-02
       H -5.55758e-04  1.69049e-02 -9.99998e-03
       O  1.31186e-02 -6.24665e-03 -9.64332e-03
       H  2.56643e-03 -1.71020e-03  1.92325e-02
       H -1.50604e-02  8.13628e-03 -9.64052e-03
       O  1.22119e-02 -6.33642e-03 -9.46265e-03
       H -1.50341e-02 -1.19718e-02  4.52017e-03
       H  2.86806e-03  1.86630e-02  5.07148e-03
       O  1.15261e-02 -6.85667e-03  1.12998e-02
       H  3.38271e-03 -1.78308e-03 -1.91618e-02
       H -1.48383e-02  8.66681e-03  9.00591e-03
       O  1.27546e-02  7.04538e-03 -8.48312e-03
       H  2.68135e-03  1.60662e-03  1.90062e-02
       H -1.44277e-02 -8.27979e-03 -1.02704e-02
       O -1.24593e-02 -7.58818e-03 -1.05021e-02
       H -3.12158e-03 -1.11519e-03  1.91999e-02
       H  1.49922e-02  8.46004e-03 -9.36654e-03
       O -1.24012e-02 -7.40718e-03 -9.12054e-03
       H  1.49609e-02 -1.18460e-02  4.49322e-03
       H -3.08308e-03  1.87499e-02  4.40711e-03
       O -1.19166e-02  7.76083e-03 -1.00835e-02
       H -3.49099e-03 -1.85214e-02  4.65899e-03
       H  1.49075e-02  1.16832e-02  4.64408e-03
       O -1.24048e-02 -6.99917e-03  8.72293e-03
       H  1.48702e-02 -1.20955e-02 -4.21110e-03
       H -3.01668e-03  1.87687e-02 -4.42155e-03
       O  1.31684e-02 -7.20123e-03 -8.80483e-03
       H  2.52346e-03 -1.56937e-03  1.90504e-02
       H -1.45415e-02  8.31667e-03 -1.01794e-02
       O  1.15672e-02  6.70424e-03  1.10983e-02
       H  3.23997e-03  1.81182e-03 -1.89945e-02
       H -1.48532e-02 -8.63947e-03  9.16409e-03
       O  1.22813e-02  6.69367e-03 -9.51652e-03
       H -1.50349e-02  1.16808e-02  4.55307e-03
       H  2.88014e-03 -1.86331e-02  5.06782e-03
       O  1.12639e-02  8.10376e-03 -1.05950e-02
       H  3.49608e-03  1.13951e-03  1.91526e-02
       H -1.47453e-02 -8.88608e-03 -9.40277e-03
       O -2.28189e-04  1.37990e-02 -9.92281e-03
       H  5.27466e-05  3.27230e-03  1.92212e-02
       H -1.99031e-05 -1.71691e-02 -9.50404e-03
       O -1.30781e-03  1.38618e-02 -1.01524e-02
       H -1.74451e-02 -6.85745e-03  5.30817e-03
       H  1.77704e-02 -6.50273e-03  4.50592e-03
       O  1.21186e-02  7.76839e-03 -1.00163e-02
       H -1.47951e-02  1.17223e-02  4.63131e-03
       H  3.32024e-03 -1.88465e-02  5.01188e-03
       O  1.14467e-02 -7.77117e-03  1.04482e-02
       H -1.46536e-02 -1.16551e-02 -5.35867e-03
       H  3.00083e-03  1.87493e-02 -4.76354e-03
       O  1.25536e-02  7.44934e-03  9.04435e-03
       H -1.48739e-02  1.17929e-02 -4.57613e-03
       H  2.92117e-03 -1.87428e-02 -4.55844e-03
       O  1.32025e-02  6.27164e-03  9.63991e-03
       H  2.54265e-03  1.85162e-03 -1.91957e-02
       H -1.51057e-02 -8.09412e-03  9.53744e-03
       O  1.15057e-02 -7.86552e-03  8.99808e-03
       H  2.89592e-03 -1.72313e-03 -1.91754e-02
       H -1.44181e-02  8.89953e-03  9.97980e-03
       O -5.71826e-04  1.36752e-02  9.99270e-03
       H -1.76506e-02 -6.72113e-03 -4.47098e-03
       H  1.77992e-02 -6.28221e-03 -4.62143e-03
       O -1.16199e-02  6.83094e-03  1.03021e-02
       H -3.32416e-03 -1.84743e-02 -5.21310e-03
       H  1.48217e-02  1.17739e-02 -4.52839e-03
       O -9.17294e-05 -1.46431e-02  9.00726e-03
       H  8.81996e-05 -3.07543e-03 -1.90430e-02
       H  4.02883e-05  1.68947e-02  9.93417e-03
       O  1.17831e-02  6.73213e-03 -9.99036e-03
       H -1.43703e-02  1.21713e-02  5.27104e-03
       H  2.75822e-03 -1.87958e-02  4.32134e-03
       O -6.43509e-04 -1.45445e-02 -9.52833e-03
       H -3.45954e-06 -3.15428e-03  1.91403e-02
       H  3.59367e-04  1.71044e-02 -9.72268e-03
       O -4.69299e-04 -1.42522e-02  9.35849e-03
       H -1.75379e-02  6.97066e-03 -5.17464e-03
       H  1.77216e-02  7.06680e-03 -4.61867e-03
       O  1.25232e-02 -5.96566e-03 -1.03007e-02
       H -1.47773e-02 -1.20269e-02  4.76198e-03
       H  2.72535e-03  1.84173e-02  5.12808e-03
       O  5.27128e-04 -1.37640e-02 -9.12836e-03
       H -1.78257e-02  6.84556e-03  4.44042e-03
       H  1.76319e-02  6.75935e-03  4.99840e-03
       O -1.19385e-02 -6.89741e-03  1.05445e-02
       H  1.43139e-02 -1.19875e-02 -5.47891e-03
       H -2.54029e-03  1.90149e-02 -4.76412e-03
       O -1.29118e-02 -5.92646e-03 -9.35866e-03
       H -2.74008e-03 -1.81937e-03  1.93179e-02
       H  1.48522e-02  7.98145e-03 -9.83211e-03
       O -1.14518e-02  7.20683e-03  1.02263e-02
       H -3.40871e-03  1.50148e-03 -1.92388e-02
       H  1.47293e-02 -8.55648e-03  9.69194e-03
       O -1.14034e-02 -8.01594e-03  1.05818e-02
       H -3.31741e-03 -1.27888e-03 -1.92130e-02
       H  1.47716e-02  8.86748e-03  9.41927e-03
       O -1.27115e-02  6.34390e-03 -9.27719e-03
       H -2.80710e-03  1.70967e-03  1.91458e-02
       H  1.48306e-02 -8.02321e-03 -9.82687e-03
       O -1.24518e-02  6.87349e-03  1.05159e-02
       H -2.38168e-03 -1.87211e-02 -4.76289e-03
       H  1.45988e-02  1.19840e-02 -5.50091e-03
       O  5.83549e-04  1.36798e-02 -9.19055e-03
       H -1.78442e-02 -6.80036e-03  4.47709e-03
       H  1.76267e-02 -6.76365e-03  5.00670e-03
       O  1.28695e-02 -6.48791e-03  9.17079e-03
       H  2.70719e-03 -1.52790e-03 -1.90977e-02
       H -1.48749e-02  8.05271e-03  9.88957e-03
       O  1.26551e-02 -6.07922e-03  1.00802e-02
       H -1.46903e-02 -1.19758e-02 -4.79745e-03
       H  2.73033e-03  1.83781e-02 -5.15383e-03
       O -1.25945e-02  6.41785e-03  1.02477e-02
       H -2.68304e-03 -1.86564e-02 -4.61423e-03
       H  1.43495e-02  1.22076e-02 -4.85856e-03
       O  3.06225e-04 -1.45281e-02  1.03345e-02
       H  1.97188e-04 -3.32880e-03 -1.90195e-02
       H -4.99661e-04  1.70560e-02  9.33807e-03
       O -4.88335e-05 -1.35007e-02 -1.01068e-02
       H -1.75849e-02  7.02742e-03  4.48433e-03
       H  1.76951e-02  6.36054e-03  5.40151e-03
       O  1.17583e-02 -6.63611e-03  9.98044e-03
       H -1.43646e-02 -1.21940e-02 -5.04975e-03
       H  2.99606e-03  1.87361e-02 -4.55302e-03
       O -1.32473e-05 -1.41009e-02  8.97345e-03
       H -1.77502e-02  6.69628e-03 -4.46703e-03
       H  1.77719e-02  6.78130e-03 -4.31263e-03
       O  1.23204e-02  8.05080e-03  9.52253e-03
       H  2.56662e-03  1.44974e-03 -1.90797e-02
       H -1.45818e-02 -9.00646e-03  9.58166e-03
       O -1.26670e-02 -7.19706e-03  8.61642e-03
       H -2.74608e-03 -1.64524e-03 -1.90277e-02
       H  1.45022e-02  8.37273e-03  1.02466e-02
       O -1.11937e-02  6.44074e-03 -1.08919e-02
       H -3.40805e-03  2.12839e-03  1.91282e-02
       H  1.46241e-02 -8.34804e-03 -9.36933e-03
       O  1.14610e-02  7.81142e-03  1.04625e-02
       H -1.45999e-02  1.16334e-02 -5.18353e-03
       H  3.07775e-03 -1.87241e-02 -4.76940e-03
       O  1.24790e-02 -7.33417e-03 -8.67755e-03
       H -1.47824e-02 -1.20369e-02  4.43383e-03
       H  3.09214e-03  1.88733e-02  4.26986e-03
       O -1.97931e-04  1.32086e-02  9.16428e-03
       H  5.28087e-05  3.60561e-03 -1.91839e-02
       H  2.81135e-06 -1.69974e-02  9.97001e-03
       O  1.70854e-04  1.47588e-02  9.09952e-03
       H -1.77407e-02 -6.84091e-03 -4.54573e-03
       H  1.77389e-02 -6.96561e-03 -4.59777e-03
       O -8.29039e-04 -1.41326e-02  1.01544e-02
       H -1.75187e-02  6.97509e-03 -4.59870e-03
       H  1.77665e-02  6.34308e-03 -4.67524e-03
       O -1.61405e-04 -1.31530e-02  9.21847e-03
       H -8.17582e-05 -3.51551e-03 -1.92269e-02
       H  1.47988e-05  1.68704e-02  9.86359e-03
       O  2.75488e-04  1.44682e-02  1.06739e-02
       H  2.51582e-04  3.35721e-03 -1.93048e-02
       H -4.59777e-04 -1.71472e-02  9.28074e-03
       O  1.24264e-02  6.32140e-03 -8.96705e-03
       H  2.79685e-03  1.79545e-03  1.91550e-02
       H -1.49158e-02 -8.09954e-03 -1.00277e-02
       O -1.20091e-02 -6.49181e-03 -1.15287e-02
       H -3.16389e-03 -2.11083e-03  1.92373e-02
       H  1.48816e-02  8.51652e-03 -8.96728e-03
       O -1.27043e-02 -7.31906e-03 -9.07322e-03
       H  1.48988e-02 -1.19374e-02  4.34755e-03
       H -2.91476e-03  1.90148e-02  4.65836e-03
       O -1.17672e-02  6.85657e-03 -1.00139e-02
       H -3.32469e-03 -1.84177e-02  5.25539e-03
       H  1.49683e-02  1.17629e-02  4.57450e-03
       O -1.15306e-02 -7.45555e-03  9.21939e-03
       H  1.46739e-02 -1.17992e-02 -4.99414e-03
       H -3.00116e-03  1.88897e-02 -4.43722e-03
       O -1.10750e-02 -8.00267e-03 -1.02862e-02
       H -3.48414e-03 -1.30256e-03  1.92050e-02
       H  1.46649e-02  8.84737e-03 -9.55635e-03
       O -1.18692e-02  6.32629e-03  9.74054e-03
       H -2.99550e-03  1.71229e-03 -1.93380e-02
       H  1.47794e-02 -8.36647e-03  9.60295e-03
       O  1.96939e-04 -1.39980e-02 -1.02414e-02
       H -1.76175e-02  6.44975e-03  5.41984e-03
       H  1.75877e-02  7.14491e-03  4.83249e-03
       O -1.08525e-03 -1.31596e-02 -1.00283e-02
       H  4.65160e-04 -3.68923e-03  1.92203e-02
       H  2.24706e-04  1.69342e-02 -9.67205e-03
       O  1.18695e-02 -7.14701e-03 -9.60730e-03
       H  2.88444e-03 -2.12773e-03  1.90442e-02
       H -1.44921e-02  8.90196e-03 -9.85688e-03
       O  8.72352e-05  1.45229e-02 -9.17693e-03
       H -1.76765e-02 -6.85924e-03  4.48359e-03
       H  1.77195e-02 -7.03225e-03  4.45066e-03
       O -1.18458e-02 -6.20452e-03  1.09322e-02
       H -3.23783e-03 -2.15883e-03 -1.90945e-02
       H  1.47996e-02  8.39811e-03  9.32702e-03
       O -1.25668e-02  6.78818e-03 -1.00559e-02
       H -2.73514e-03  2.14261e-03  1.92410e-02
       H  1.45578e-02 -8.69990e-03 -9.76572e-03
       O -3.97537e-05  1.49303e-02 -9.13990e-03
       H  4.02657e-05  2.90469e-03  1.90655e-02
       H -2.77503e-05 -1.69937e-02 -9.72847e-03
       O -1.16680e-02 -6.54783e-03 -1.04357e-02
       H  1.43484e-02 -1.22018e-02  5.28191e-03
       H -2.81258e-03  1.87279e-02  4.55792e-03
       O  8.51859e-04  1.30834e-02  1.00548e-02
       H -5.46866e-04  3.77261e-03 -1.92378e-02
       H -9.74154e-05 -1.70519e-02  9.56394e-03
       O -4.45066e-05  1.40167e-02  1.02189e-02
       H -1.75624e-02 -6.57756e-03 -5.46947e-03
       H  1.75393e-02 -7.12995e-03 -4.63598e-03
       O  1.26415e-02 -7.12879e-03 -1.03097e-02
       H  2.96314e-03 -1.39675e-03  1.90241e-02
       H -1.50130e-02  8.27112e-03 -9.35485e-03
       O  1.22397e-02  7.15325e-03  1.00527e-02
       H  2.88149e-03  1.79302e-03 -1.90957e-02
       H -1.44512e-02 -8.69786e-03  9.66842e-03
       O -1.22477e-02  5.84015e-03 -1.00050e-02
       H -2.82356e-03 -1.85953e-02  5.13196e-03
       H  1.44517e-02  1.22038e-02  4.60693e-03
       O -2.16085e-04  1.40016e-02  1.00459e-02
       H -1.75291e-02 -7.10423e-03 -4.62175e-03
       H  1.75830e-02 -6.44033e-03 -5.32266e-03
       O  5.25445e-04  1.43278e-02 -9.92725e-03
       H -5.60675e-04  3.39457e-03  1.90153e-02
       H  2.30466e-04 -1.69343e-02 -9.71542e-03
       O -1.16185e-02  8.31352e-03  9.30539e-03
       H -2.81938e-03  1.42402e-03 -1.91276e-02
       H  1.42219e-02 -9.02919e-03  9.82221e-03
       O  1.19141e-02  7.13504e-03 -1.03801e-02
       H -1.49142e-02  1.16194e-02  4.69990e-03
       H  3.25462e-03 -1.84935e-02  5.49519e-03
       O  1.22429e-02 -7.05830e-03  9.09640e-03
       H -1.47783e-02 -1.19810e-02 -4.45968e-03
       H  3.04735e-03  1.87465e-02 -4.50205e-03
       O -1.24117e-02  8.03233e-03  1.03548e-02
       H -3.09988e-03 -1.88045e-02 -4.95910e-03
       H  1.47919e-02  1.14964e-02 -4.75190e-03
       O -1.24119e-02  6.02533e-03  9.10401e-03
       H -2.85825e-03  1.64626e-03 -1.92458e-02
       H  1.48583e-02 -7.88907e-03  9.90388e-03
       O -1.28137e-02 -6.30973e-03  9.27850e-03
       H -2.68184e-03 -1.69097e-03 -1.90707e-02
       H  1.50840e-02  8.12765e-03  9.67753e-03
       O -1.20957e-02 -7.15154e-03  1.03625e-02
       H  1.49539e-02 -1.16268e-02 -4.81425e-03
       H -3.15061e-03  1.84172e-02 -5.39464e-03
       O  1.20117e-02  6.34063e-03  9.49739e-03
       H -1.48636e-02  1.19879e-02 -4.46437e-03
       H  2.93896e-03 -1.86611e-02 -4.93263e-03
       O -2.19311e-04 -1.43526e-02  9.94554e-03
       H -1.58686e-04 -3.33984e-03 -1.91650e-02
       H  4.82621e-04  1.69143e-02  9.70532e-03
       O -7.30651e-04 -1.46037e-02 -1.00282e-02
       H -1.75947e-02  6.99782e-03  4.76073e-03
       H  1.77561e-02  6.48931e-03  4.79016e-03
       O -1.21380e-02 -6.85014e-03  1.02782e-02
       H  1.43294e-02 -1.19253e-02 -5.36734e-03
       H -2.65480e-03  1.87576e-02 -4.74202e-03
       O -1.26695e-02  6.57870e-03  1.02498e-02
       H -2.80846e-03 -1.85124e-02 -4.73587e-03
       H  1.47638e-02  1.20234e-02 -4.75479e-03
       O -1.28406e-02  6.27117e-03  9.47961e-03
       H -2.56413e-03  1.89222e-03 -1.93390e-02
       H  1.48538e-02 -8.17814e-03  9.78003e-03
       O -1.14994e-02 -6.47513e-03  9.27684e-03
       H -3.11691e-03 -1.72211e-03 -1.91241e-02
       H  1.46851e-02  8.45654e-03  9.87030e-03
       O -1.29439e-02 -6.12035e-03  1.06397e-02
       H  1.46650e-02 -1.19554e-02 -4.96157e-03
       H -2.38327e-03  1.85518e-02 -5.33841e-03
       O  1.22244e-02  5.60151e-03  1.03709e-02
       H -1.44181e-02  1.23589e-02 -4.64060e-03
       H  2.83141e-03 -1.85442e-02 -5.16056e-03
       O -5.05684e-04 -1.49555e-02  9.03521e-03
       H  8.97511e-05 -3.13401e-03 -1.92175e-02
       H  2.14611e-04  1.67740e-02  1.00683e-02
       O -1.20292e-02 -7.94565e-03  9.50634e-03
       H -2.88118e-03 -1.36184e-03 -1.92998e-02
       H  1.46010e-02  8.94416e-03  9.78144e-03
       O -1.24818e-02  6.96657e-03 -9.92016e-03
       H -3.15060e-03  1.48586e-03  1.90748e-02
       H  1.49410e-02 -8.04941e-03 -9.73102e-03
       O -1.20573e-02 -6.66644e-03 -1.12998e-02
       H -3.14261e-03 -1.95594e-03  1.90660e-02
       H  1.48426e-02  8.59581e-03 -9.20990e-03
       O -1.16620e-02 -7.34773e-03 -9.06707e-03
       H  1.48092e-02 -1.18053e-02  4.76293e-03
       H -2.95008e-03  1.89152e-02  4.37504e-03
       O  1.17491e-02  7.22434e-03 -9.25571e-03
       H -1.47117e-02  1.18672e-02  4.99299e-03
       H  2.91005e-03 -1.88123e-02  4.52039e-03
       O  1.12926e-02 -7.82718e-03  9.88825e-03
       H -1.45662e-02 -1.17304e-02 -5.22419e-03
       H  3.32854e-03  1.86801e-02 -4.66560e-03
       O  1.28448e-02 -6.52159e-03 -9.23732e-03
       H  2.81728e-03 -1.60501e-03  1.91774e-02
       H -1.50997e-02  8.02209e-03 -9.89986e-03
       O  1.24238e-02  6.87215e-03  9.94622e-03
       H  3.11972e-03  1.65657e-03 -1.90506e-02
       H -1.47413e-02 -8.11916e-03  9.75773e-03
       O -2.14242e-04 -1.34953e-02 -1.04283e-02
       H -1.76506e-02  6.86707e-03  4.57417e-03
       H  1.78352e-02  6.36605e-03  5.24826e-03
       O -1.32876e-02  7.46894e-03 -9.43565e-03
       H -2.51632e-03  1.60580e-03  1.92436e-02
       H  1.47028e-02 -8.45100e-03 -9.79981e-03
       O -1.24697e-02  6.38674e-03  9.94614e-03
       H -3.02455e-03 -1.85613e-02 -4.69673e-03
       H  1.44233e-02  1.23540e-02 -4.66584e-03
       O -1.13725e-02 -8.00737e-03 -1.04686e-02
       H  1.49448e-02 -1.14407e-02  5.17886e-03
       H -3.15785e-03  1.85369e-02  4.81266e-03
       O  1.18732e-02  6.65126e-03 -1.00462e-02
       H -1.44214e-02  1.21617e-02  5.24279e-03
       H  2.87278e-03 -1.87908e-02  4.63141e-03
       O  1.12119e-02 -7.91738e-03  9.92578e-03
       H -1.46881e-02 -1.17935e-02 -5.24996e-03
       H  3.21982e-03  1.89027e-02 -4.46149e-03
       O  1.19765e-02 -6.72327e-03 -9.72001e-03
       H  3.30194e-03 -1.49037e-03  1.90529e-02
       H -1.47672e-02  8.06894e-03 -9.75715e-03
       O  1.25320e-02  6.97524e-03  1.02407e-02
       H  2.99309e-03  1.60263e-03 -1.89211e-02
       H -1.49053e-02 -8.17910e-03  9.36282e-03
       O -1.16177e-02  6.78552e-03 -1.00301e-02
       H -3.28519e-03 -1.84828e-02  5.19978e-03
       H  1.47638e-02  1.18750e-02  4.60033e-03
       O  1.06465e-04 -1.42334e-02 -9.84942e-03
       H  1.35280e-04 -3.47375e-03  1.90188e-02
       H -4.32171e-04  1.68871e-02 -9.80690e-03
       O  4.04258e-04  1.43144e-02 -9.99848e-03
       H -4.12227e-04  3.48153e-03  1.91537e-02
       H  2.75358e-04 -1.69620e-02 -9.72575e-03
       O  1.23189e-02 -5.74748e-03 -1.01947e-02
       H -1.47128e-02 -1.22256e-02  4.72385e-03
       H  2.84464e-03  1.85303e-02  5.04561e-03
       O -1.15604e-02 -6.69858e-03  1.09417e-02
       H -3.10615e-03 -1.89293e-03 -1.89909e-02
       H  1.48203e-02  8.58833e-03  9.16066e-03
       O -1.14958e-02  6.86424e-03 -1.09634e-02
       H -3.61601e-03  1.72484e-03  1.90684e-02
       H  1.46564e-02 -8.51884e-03 -9.40957e-03
       O -1.25361e-02 -7.17084e-03 -8.91735e-03
       H -2.85538e-03 -1.53409e-03  1.91863e-02
       H  1.45977e-02  8.35165e-03 -1.00281e-02
       O  1.45419e-03  1.35378e-02 -1.01373e-02
       H -1.79534e-02 -6.51024e-03  4.64869e-03
       H  1.73362e-02 -6.67486e-03  5.25856e-03
       O -4.19737e-04  1.41735e-02  9.87995e-03
       H -2.17551e-04  3.42612e-03 -1.90808e-02
       H  5.69071e-04 -1.68954e-02  9.81112e-03
       O  1.25190e-02 -6.54385e-03  9.53409e-03
       H -1.48846e-02 -1.18362e-02 -4.54833e-03
       H  2.55039e-03  1.88424e-02 -5.08656e-03
       O -1.18445e-02  7.49854e-03  9.77575e-03
       H -3.40525e-03 -1.87327e-02 -4.60663e-03
       H  1.46385e-02  1.20545e-02 -4.51422e-03
       O  3.23672e-04 -1.49301e-02  8.92989e-03
       H  1.12926e-05 -3.11888e-03 -1.91530e-02
       H -8.72132e-05  1.67418e-02  1.01067e-02
       O  1.18462e-02 -8.09887e-03  9.40444e-03
       H  3.00918e-03 -1.38090e-03 -1.91948e-02
       H -1.45311e-02  8.97971e-03  9.77966e-03
       O  1.26958e-02  7.03832e-03 -1.02344e-02
       H  3.08208e-03  1.32349e-03  1.90308e-02
       H -1.49984e-02 -8.13426e-03 -9.52650e-03
       O  1.19839e-02 -6.65126e-03 -1.12857e-02
       H  3.17191e-03 -1.96057e-03  1.90269e-02
       H -1.49515e-02  8.58561e-03 -9.22274e-03
       O  1.19241e-02 -7.49769e-03 -9.52566e-03
       H -1.48954e-02 -1.16891e-02  5.09396e-03
       H  2.73354e-03  1.87729e-02  4.52666e-03
       O -1.17325e-02  7.38246e-03 -9.35238e-03
       H -2.93462e-03 -1.88666e-02  4.54868e-03
       H  1.47522e-02  1.18715e-02  5.12075e-03
       O -1.21452e-02 -7.08255e-03  1.00188e-02
       H  1.49285e-02 -1.15456e-02 -4.58896e-03
       H -3.06090e-03  1.85419e-02 -5.36248e-03
       O -1.27003e-02 -6.68261e-03 -9.26904e-03
       H -2.77629e-03 -1.72773e-03  1.91178e-02
       H  1.49682e-02  8.11280e-03 -9.85903e-03
       O -3.05667e-04 -1.44367e-02  1.02461e-02
       H -2.66478e-04 -3.30403e-03 -1.89444e-02
       H  4.41859e-04  1.70262e-02  9.50888e-03
       O -1.19716e-02 -7.75460e-03  9.36579e-03
       H -2.73891e-03 -1.63281e-03 -1.91524e-02
       H  1.44891e-02  8.85056e-03  9.80226e-03
       O  2.37337e-04  1.36321e-02  1.00216e-02
       H -1.76828e-02 -6.46055e-03 -5.20254e-03
       H  1.75988e-02 -6.99360e-03 -4.56426e-03
       O  5.06430e-04 -1.37661e-02  9.25179e-03
       H -1.77395e-02  6.83820e-03 -4.51748e-03
       H  1.75574e-02  6.73895e-03 -4.97012e-03
       O  1.23050e-02  7.30799e-03  9.86988e-03
       H  2.77241e-03  1.78908e-03 -1.90040e-02
       H -1.44011e-02 -8.88010e-03  9.71563e-03
       O  1.19945e-02 -7.13952e-03  9.74258e-03
       H  2.86129e-03 -2.10300e-03 -1.92063e-02
       H -1.44450e-02  8.92607e-03  9.76099e-03
       O -4.79319e-05  1.43135e-02  8.89221e-03
       H -1.78918e-02 -6.72887e-03 -4.50953e-03
       H  1.79283e-02 -6.86746e-03 -4.20436e-03
       O  1.97367e-04 -1.39578e-02  1.01955e-02
       H -1.76444e-02  6.52712e-03 -5.32323e-03
       H  1.75973e-02  7.16470e-03 -4.84100e-03
       O -1.14846e-03 -1.32322e-02  9.98426e-03
       H  5.35701e-04 -3.74004e-03 -1.91429e-02
       H  1.70294e-04  1.69635e-02  9.69933e-03
       O -6.50586e-05  1.41364e-02  1.02679e-02
       H  4.47153e-04  3.34308e-03 -1.91760e-02
       H -4.39922e-04 -1.70804e-02  9.33927e-03
       O -1.14906e-02 -7.23944e-03  9.60035e-03
       H  1.47389e-02 -1.18622e-02 -5.11536e-03
       H -2.89675e-03  1.88709e-02 -4.45927e-03
       O -1.18970e-02 -7.04754e-03 -1.13785e-02
       H -3.23258e-03 -1.68580e-03  1.90695e-02
       H  1.48880e-02  8.61467e-03 -9.00271e-03
       O -1.24865e-02  6.68762e-03  9.98303e-03
       H -3.24796e-03  1.45449e-03 -1.92293e-02
       H  1.48799e-02 -7.98332e-03  9.82257e-03
       O  1.27213e-02 -6.95539e-03  1.01535e-02
       H  2.97686e-03 -1.54639e-03 -1.91325e-02
       H -1.50687e-02  8.06380e-03  9.61355e-03
       O  1.24146e-02  5.64340e-03 -1.04327e-02
       H  2.80592e-03  2.31678e-03  1.91582e-02
       H -1.49508e-02 -8.36456e-03 -9.45508e-03
       O  1.16442e-02  7.36067e-03  9.93644e-03
       H -1.48126e-02  1.20145e-02 -4.52496e-03
       H  3.54893e-03 -1.86227e-02 -4.63477e-03
       O  1.18855e-02 -6.80371e-03 -9.80125e-03
       H -1.43455e-02 -1.22398e-02  5.17141e-03
       H  2.85677e-03  1.88298e-02  4.31096e-03
       O -9.00297e-04  1.38028e-02  9.08529e-03
       H  2.87684e-04  3.41934e-03 -1.92298e-02
       H  4.70825e-04 -1.68112e-02  9.95323e-03
       O  1.24285e-04  1.38587e-02  1.05134e-02
       H -1.74827e-02 -6.37509e-03 -5.41539e-03
       H  1.75725e-02 -7.28445e-03 -4.67100e-03
       O -6.50965e-04 -1.39159e-02  1.00225e-02
       H -1.76450e-02  6.83456e-03 -4.53951e-03
       H  1.78982e-02  6.39707e-03 -4.66172e-03
       O  1.18809e-02  7.98727e-03  9.31357e-03
       H  2.99600e-03  1.37175e-03 -1.92047e-02
       H -1.44305e-02 -8.93662e-03  9.97076e-03
       O -1.11330e-02  7.75623e-03 -1.02625e-02
       H -3.25925e-03 -1.86899e-02  4.61309e-03
       H  1.45408e-02  1.17584e-02  5.33419e-03
       O  3.77459e-05 -1.40366e-02 -1.01126e-02
       H  2.65107e-04 -3.35704e-03  1.91044e-02
       H -2.73322e-04  1.70459e-02 -9.54375e-03
       O  1.25927e-02  5.84807e-03  1.05624e-02
       H -1.45467e-02  1.20792e-02 -4.82918e-03
       H  2.45478e-03 -1.86510e-02 -5.21470e-03
       O  2.05836e-04  1.44914e-02 -9.04396e-03
       H -1.77354e-02 -6.78784e-03  4.54425e-03
       H  1.76207e-02 -6.89062e-03  4.63223e-03
       O  5.77971e-04 -1.40336e-02 -9.59178e-03
       H -1.77470e-02  7.15933e-03  4.57973e-03
       H  1.75117e-02  6.87240e-03  5.07617e-03
       O  7.53420e-04 -1.36083e-02 -1.02553e-02
       H -3.22175e-04 -3.61452e-03  1.92628e-02
       H -5.60337e-05  1.70387e-02 -9.59224e-03
       O -3.01977e-04  1.52919e-02 -9.21185e-03
       H  2.25521e-04  2.87740e-03  1.89816e-02
       H  1.09344e-06 -1.69807e-02 -9.79196e-03
       O -1.22703e-02 -5.66584e-03 -1.01749e-02
       H  1.44913e-02 -1.23405e-02  4.70594e-03
       H -2.79847e-03  1.85316e-02  5.16715e-03
       O -1.26538e-02  6.42699e-03 -1.01556e-02
       H -2.71068e-03 -1.86477e-02  4.63181e-03
       H  1.43875e-02  1.21663e-02  4.79341e-03
       O  9.97106e-04 -1.41488e-02 -9.30132e-03
       H -1.98003e-04 -3.27269e-03  1.90993e-02
       H -5.81701e-04  1.70675e-02 -9.70792e-03
       O  1.16309e-02 -8.32911e-03 -9.26433e-03
       H  2.83334e-03 -1.40058e-03  1.92155e-02
       H -1.42976e-02  8.94065e-03 -9.88162e-03
       O  7.68600e-04  1.39761e-02 -9.70271e-03
       H -1.79379e-02 -6.19726e-03  4.62567e-03
       H  1.76318e-02 -6.93463e-03  4.34699e-03
       O  3.79141e-05 -1.40248e-02 -8.85931e-03
       H -1.77500e-02  6.64183e-03  4.42425e-03
       H  1.77896e-02  6.85279e-03  4.43197e-03
       O  1.14930e-02  7.89922e-03 -8.86300e-03
       H  2.86365e-03  1.67140e-03  1.91205e-02
       H -1.42716e-02 -8.91299e-03 -9.99867e-03
       O -1.11988e-02  7.89145e-03  1.01205e-02
       H -3.42109e-03 -1.88221e-02 -4.49970e-03
       H  1.46755e-02  1.18903e-02 -5.22855e-03
       O -1.24328e-02 -7.22079e-03 -8.64792e-03
       H  1.47844e-02 -1.20972e-02  4.41151e-03
       H -3.01742e-03  1.88449e-02  4.24614e-03
       O  1.24098e-02  6.98314e-03 -1.05858e-02
       H -1.45664e-02  1.18743e-02  5.61173e-03
       H  2.43397e-03 -1.87229e-02  4.77788e-03
       O -1.81457e-05  1.36309e-02  1.01376e-02
       H -1.76736e-02 -7.05083e-03 -4.59383e-03
       H  1.76785e-02 -6.35820e-03 -5.38132e-03
       O  6.55716e-04 -1.40352e-02  9.98601e-03
       H -1.78224e-02  6.35665e-03 -4.67749e-03
       H  1.76609e-02  6.76107e-03 -4.70896e-03
       O -1.22568e-02  7.16346e-03  9.80385e-03
       H -2.92629e-03  1.78043e-03 -1.89825e-02
       H  1.45110e-02 -8.72695e-03  9.79181e-03
       O  1.18555e-02  6.89839e-03 -9.72517e-03
       H -1.49357e-02  1.18640e-02  4.36851e-03
       H  3.41524e-03 -1.85353e-02  5.23119e-03
       O  1.19634e-02 -7.60697e-03  1.02087e-02
       H -1.46638e-02 -1.17420e-02 -4.66166e-03
       H  3.25370e-03  1.86861e-02 -4.84044e-03
       O -4.29271e-04  1.35005e-02 -1.09746e-02
       H  1.06389e-04  3.83788e-03  1.90857e-02
       H  2.27975e-04 -1.70436e-02 -9.30896e-03
       O -1.20073e-02  6.94334e-03  9.62373e-03
       H -2.87699e-03  2.29778e-03 -1.91005e-02
       H  1.44965e-02 -8.77596e-03  9.93319e-03
       O  1.09068e-02 -7.41963e-03  1.00436e-02
       H  3.38203e-03 -1.57291e-03 -1.91996e-02
       H -1.46682e-02  8.63944e-03  9.59178e-03
       O  1.21817e-02  7.34317e-03 -9.97675e-03
       H  2.96984e-03  1.77507e-03  1.91806e-02
       H -1.43922e-02 -8.78612e-03 -9.67652e-03
       O  1.00803e-04  1.35890e-02 -9.61639e-03
       H -1.21563e-04  3.35686e-03  1.92858e-02
       H -2.99658e-05 -1.70260e-02 -9.67154e-03
       O -1.27634e-03  1.40240e-02 -1.02359e-02
       H -1.75110e-02 -6.98428e-03  5.31949e-03
       H  1.78178e-02 -6.65912e-03  4.60228e-03
       O  4.44190e-04  1.42556e-02  1.01561e-02
       H -3.73086e-04  3.49287e-03 -1.92225e-02
       H  1.52142e-04 -1.70780e-02  9.67033e-03
       O -1.14416e-02  7.69541e-03 -9.10040e-03
       H -2.93729e-03  1.75350e-03  1.92082e-02
       H  1.43005e-02 -8.93087e-03 -9.91681e-03
       O  1.24257e-02  7.19002e-03  8.69739e-03
       H -1.48206e-02  1.20188e-02 -4.32461e-03
       H  3.08661e-03 -1.88413e-02 -4.47538e-03
       O  1.19877e-02 -7.62116e-03 -1.01519e-02
       H -1.46185e-02 -1.18224e-02  4.60761e-03
       H  3.21295e-03  1.87972e-02  4.77666e-03
576
# CELL(abcABC):   34.06844    44.25621    27.81677    90.00000    90.00000    90.00000  Step:           1  Bead:       0 forces{atomic_unit}  cell{atomic_unit}
       O -1.25261e-02  7.14756e-03 -9.93383e-03
       H  4.96949e-03 -2.30594e-03  8.27850e-03
       H  8.32084e-03 -5.31829e-03  2.31473e-03
       O -1.22962e-02 -8.04227e-03  1.01755e-02
       H  4.65389e-03  3.02570e-03 -8.75906e-03
       H  8.11000e-03  4.77024e-03 -2.26258e-03
       O -6.39032e-05 -1.47230e-02  1.03309e-02
       H  1.29486e-04  5.33865e-03 -8.00565e-03
       H  1.22070e-08  9.29422e-03 -2.32239e-03
       O -1.03931e-04 -1.50709e-02  9.93739e-03
       H  3.59539e-03  7.29300e-03 -4.77221e-03
       H -4.48552e-03  8.33351e-03 -5.75100e-03
       O  1.72865e-04 -1.44409e-02 -1.01929e-02
       H -4.36712e-04  5.53176e-03  8.73612e-03
       H  3.33100e-04  9.90652e-03  2.29803e-03
       O  1.30431e-02 -6.46372e-03  1.02126e-02
       H -4.96763e-03  2.56707e-03 -8.57186e-03
       H -7.90093e-03  4.47162e-03 -2.34907e-03
       O -1.18436e-02 -6.84423e-03 -1.12573e-02
       H  8.28729e-03  5.70895e-04  5.69846e-03
       H  4.62285e-03  6.86476e-03  5.48650e-03
       O -1.21982e-02  7.12499e-03  1.00883e-02
       H  8.08011e-03 -7.39083e-04 -5.38341e-03
       H  5.09551e-03 -7.53076e-03 -5.58015e-03
       O  1.28654e-02 -7.39907e-03  9.75765e-03
       H -4.39738e-03  6.98232e-03 -5.55080e-03
       H -8.92096e-03  6.35752e-04 -4.89076e-03
       O -1.05063e-04  1.43676e-02  1.02508e-02
       H  5.48279e-04 -5.58027e-03 -8.85873e-03
       H -3.72328e-04 -9.92780e-03 -2.34530e-03
       O  1.84667e-04  1.47918e-02 -9.87962e-03
       H  3.70313e-03 -7.33237e-03  5.41270e-03
       H -3.95208e-03 -7.98699e-03  4.90224e-03
       O  1.26609e-02  7.29557e-03  9.89006e-03
       H -9.11870e-03 -3.98085e-04 -5.72799e-03
       H -4.40671e-03 -6.34727e-03 -4.77707e-03
       O -1.37286e-04  1.46793e-02  1.09244e-02
       H  3.85161e-03 -7.39519e-03 -4.94894e-03
       H -4.15287e-03 -7.49719e-03 -5.73197e-03
       O  9.39312e-04  1.45794e-02  1.01471e-02
       H  2.44177e-05 -5.25451e-03 -7.89396e-03
       H -4.91253e-04 -1.02232e-02 -2.39293e-03