1080
# CELL(abcABC):   42.58556    44.25621    41.72515    90.00000    90.00000    90.00000  Step:           0  Bead:       0 forces{atomic_unit}  cell{atomic_unit}
       O -1.34176e-03  1.41603e-02  9.16274e-03
       H  2.26129e-04  3.33623e-03 -1.91319e-02
       H  5.46890e-04 -1.68183e-02  9.97657e-03
       O  1.20773e-02 -7.61828e-03  1.01822e-02
       H -1.46763e-02 -1.17841e-02 -4.55561e-03
       H  3.19997e-03  1.87254e-02 -4.76940e-03
       O  6.23481e-04 -1.42404e-02  1.02277e-02
       H -1.78540e-02  6.50238e-03 -4.79531e-03
       H  1.74279e-02  6.86097e-03 -4.61727e-03
       O -1.14325e-02  7.45718e-03  9.06936e-03
       H -3.08661e-03  1.69080e-03 -1.92242e-02
       H  1.43114e-02 -8.75978e-03  1.00016e-02
       O  1.18022e-02 -6.42672e-03  9.64439e-03
       H  2.97196e-03 -1.78471e-03 -1.93660e-02
       H -1.47188e-02  8.34795e-03  9.70869e-03
       O  1.10124e-02  7.88683e-03 -1.04704e-02
       H  3.50562e-03  1.33668e-03  1.93039e-02
       H -1.46377e-02 -8.74596e-03 -9.46898e-03
       O -1.28806e-02  6.13659e-03  1.05884e-02
       H -2.46819e-03 -1.85402e-02 -5.33105e-03
       H  1.46706e-02  1.18171e-02 -4.89268e-03
       O -4.39810e-05  1.35433e-02 -1.03232e-02
       H -1.75930e-02 -6.27780e-03  5.51680e-03
       H  1.76524e-02 -7.03404e-03  4.59694e-03
       O  1.25479e-02  5.78295e-03 -1.05659e-02
       H -1.44969e-02  1.20565e-02  4.78033e-03
       H  2.57704e-03 -1.86069e-02  5.43491e-03
       O  6.76997e-04  1.38955e-02  9.75621e-03
       H -1.79063e-02 -6.29722e-03 -4.64110e-03
       H  1.76453e-02 -6.73637e-03 -4.58467e-03
       O -1.17864e-02  6.57426e-03  1.01526e-02
       H -2.87011e-03 -1.87279e-02 -4.50973e-03
       H  1.42611e-02  1.23261e-02 -5.34848e-03
       O  1.79307e-04 -1.46493e-02  8.78672e-03
       H -8.05707e-05 -3.17210e-03 -1.90604e-02
       H -2.05121e-05  1.67727e-02  1.00619e-02
       O -1.19914e-02  7.06462e-03 -1.03108e-02
       H -3.25291e-03 -1.84703e-02  5.23514e-03
       H  1.49839e-02  1.17790e-02  4.80918e-03
       O -1.25243e-02 -7.19452e-03  8.61640e-03
       H  1.47584e-02 -1.20436e-02 -4.44710e-03
       H -2.93492e-03  1.88612e-02 -4.25865e-03
       O  1.18522e-02 -6.82558e-03 -9.80358e-03
       H  3.04391e-03 -2.02529e-03  1.91668e-02
       H -1.42565e-02  8.78189e-03 -9.76256e-03
       O  1.10723e-02  7.53217e-03  1.03217e-02
       H  3.33204e-03  1.39297e-03 -1.91241e-02
       H -1.47753e-02 -8.72236e-03  9.43259e-03
       O  6.31525e-04 -1.40754e-02 -9.94540e-03
       H -1.78477e-02  6.43530e-03  4.63690e-03
       H  1.76700e-02  6.71337e-03  4.68116e-03
       O -1.20150e-02  7.38909e-03 -9.90119e-03
       H -2.97197e-03  2.00462e-03  1.90584e-02
       H  1.43134e-02 -8.80618e-03 -9.75311e-03
       O  1.26078e-02  5.88654e-03  1.05263e-02
       H -1.45136e-02  1.21853e-02 -4.78835e-03
       H  2.68202e-03 -1.86500e-02 -5.33616e-03
       O  1.20491e-03  1.37892e-02 -9.88870e-03
       H -1.79307e-02 -6.45845e-03  4.73920e-03
       H  1.74650e-02 -6.85340e-03  5.11782e-03
       O  4.86425e-04  1.34920e-02  1.01452e-02
       H -2.74143e-04  3.68301e-03 -1.91511e-02
       H -2.60086e-05 -1.70498e-02  9.60204e-03
       O -1.17827e-02  6.53537e-03 -1.09101e-02
       H -3.29909e-03  2.16824e-03  1.90628e-02
       H  1.47969e-02 -8.38087e-03 -9.39691e-03
       O -1.11675e-02  7.87319e-03  1.02227e-02
       H -3.26267e-03 -1.87876e-02 -4.72514e-03
       H  1.46529e-02  1.16514e-02 -5.24926e-03
       O -1.17296e-02 -7.52190e-03 -8.88118e-03
       H  1.46247e-02 -1.18895e-02  5.01337e-03
       H -2.88321e-03  1.89270e-02  4.23522e-03
       O  1.25443e-02  7.21292e-03 -8.40079e-03
       H -1.49656e-02  1.20997e-02  4.18144e-03
       H  3.03853e-03 -1.89532e-02  4.22378e-03
       O  1.11260e-02  7.45247e-03 -1.04090e-02
       H  3.35430e-03  1.33427e-03  1.92021e-02
       H -1.48694e-02 -8.67536e-03 -9.30877e-03
       O -1.18087e-02 -7.14125e-03 -1.15386e-02
       H -3.29151e-03 -1.79556e-03  1.91967e-02
       H  1.49526e-02  8.73562e-03 -9.00859e-03
       O -1.29791e-02 -7.54037e-03 -9.42592e-03
       H  1.49272e-02 -1.17112e-02  4.61550e-03
       H -2.59982e-03  1.88898e-02  4.66683e-03
       O  1.28176e-02  6.29182e-03 -9.91322e-03
       H -1.44740e-02  1.23101e-02  4.57465e-03
       H  2.82730e-03 -1.86018e-02  4.80978e-03
       O  1.18972e-02 -7.74191e-03  1.01608e-02
       H -1.48232e-02 -1.17559e-02 -4.65271e-03
       H  3.45647e-03  1.85008e-02 -4.72473e-03
       O -1.11943e-02 -7.55650e-03 -1.02647e-02
       H -3.49882e-03 -1.34138e-03  1.91362e-02
       H  1.45847e-02  8.58353e-03 -9.51313e-03
       O -1.24338e-02  5.97691e-03  9.19856e-03
       H -2.84919e-03  1.79747e-03 -1.92274e-02
       H  1.48015e-02 -8.06590e-03  9.87568e-03
       O -1.26074e-02 -7.04784e-03  8.66265e-03
       H -2.68819e-03 -1.57925e-03 -1.90057e-02
       H  1.44200e-02  8.31907e-03  1.01086e-02
       O -1.13768e-02  7.95828e-03 -1.08270e-02
       H -3.36609e-03  1.21076e-03  1.92274e-02
       H  1.48126e-02 -8.82805e-03 -9.07971e-03
       O  1.22348e-02  5.58013e-03  1.03959e-02
       H -1.45324e-02  1.23003e-02 -4.66268e-03
       H  2.85859e-03 -1.85471e-02 -5.14974e-03
       O  6.03408e-04  1.39217e-02 -9.04723e-03
       H -1.78028e-02 -6.90769e-03  4.38547e-03
       H  1.75493e-02 -6.72932e-03  5.09762e-03
       O -1.24510e-02  6.37119e-03 -9.62702e-03
       H -2.66640e-03 -1.87553e-02  5.25861e-03
       H  1.48472e-02  1.18632e-02  4.49512e-03
       O -1.23411e-02  6.29662e-03 -1.04757e-02
       H -2.87696e-03  2.05070e-03  1.91622e-02
       H  1.50045e-02 -8.45149e-03 -9.42309e-03
       O -1.71308e-04  1.39639e-02 -9.81779e-03
       H  4.19221e-05  3.18606e-03  1.91678e-02
       H  9.16395e-05 -1.72565e-02 -9.52773e-03
       O  1.17826e-03  1.37922e-02 -1.05199e-02
       H -1.76671e-02 -6.53060e-03  4.84873e-03
       H  1.74528e-02 -7.04056e-03  5.26834e-03
       O  1.01244e-04  1.35975e-02  1.08789e-02
       H -1.74752e-04  3.68476e-03 -1.90341e-02
       H -4.84750e-05 -1.70477e-02  9.32771e-03
       O  1.13434e-02  6.55591e-03 -1.05896e-02
       H  3.33786e-03  2.26168e-03  1.90557e-02
       H -1.46900e-02 -8.65239e-03 -9.53687e-03
       O -1.24969e-02  6.69693e-03  9.44919e-03
       H -3.02536e-03 -1.88549e-02 -4.53793e-03
       H  1.45095e-02  1.22175e-02 -4.50009e-03
       O -1.17675e-02 -7.63771e-03 -9.85069e-03
       H  1.45716e-02 -1.19148e-02  4.61818e-03
       H -3.44018e-03  1.86548e-02  4.66071e-03
       O -9.19393e-04  1.37776e-02  8.99901e-03
       H  2.71042e-04  3.43643e-03 -1.91021e-02
       H  4.77755e-04 -1.67498e-02  1.00260e-02
       O -6.42167e-04  1.47455e-02  1.04774e-02
       H -1.74811e-02 -7.09692e-03 -4.83502e-03
       H  1.77297e-02 -6.70384e-03 -4.88891e-03
       O  2.74719e-05 -1.41614e-02  1.07073e-02
       H -1.74296e-02  6.65502e-03 -5.51317e-03
       H  1.74401e-02  7.23144e-03 -4.79405e-03
       O  6.58944e-04 -1.37776e-02  9.24163e-03
       H -6.89122e-05 -3.48895e-03 -1.93556e-02
       H -4.04236e-04  1.69767e-02  9.93351e-03
       O  1.15193e-02 -7.51784e-03  9.17620e-03
       H  2.99913e-03 -1.65345e-03 -1.93130e-02
       H -1.42586e-02  8.92501e-03  9.89450e-03
       O  1.12226e-03  1.39447e-02  1.04638e-02
       H -1.76215e-02 -6.65958e-03 -4.70216e-03
       H  1.75462e-02 -7.15396e-03 -5.38453e-03
       O -1.18762e-02 -5.70306e-03 -1.00096e-02
       H -3.06112e-03 -2.29978e-03  1.92072e-02
       H  1.46743e-02  8.37902e-03 -9.68250e-03
       O -1.14528e-02  7.05060e-03  1.08294e-02
       H -3.42303e-03  1.85347e-03 -1.90995e-02
       H  1.48137e-02 -8.63690e-03  9.42745e-03
       O -1.24424e-02  5.89129e-03 -9.72131e-03
       H -2.90604e-03 -1.86903e-02  5.16640e-03
       H  1.45910e-02  1.22375e-02  4.53258e-03
       O  1.35656e-03  1.36858e-02  1.00276e-02
       H -1.78914e-02 -6.43059e-03 -4.63589e-03
       H  1.74123e-02 -6.78391e-03 -5.26431e-03
       O  1.47313e-04  1.34383e-02 -1.07838e-02
       H -2.56811e-04  3.92153e-03  1.90673e-02
       H -6.55446e-05 -1.69924e-02 -9.48526e-03
       O -1.09644e-02  7.82722e-03  1.02025e-02
       H -3.54326e-03  1.28847e-03 -1.91772e-02
       H  1.45448e-02 -8.60567e-03  9.60216e-03
       O -1.23749e-02  7.09029e-03 -8.83292e-03
       H -3.16563e-03 -1.86812e-02  4.50112e-03
       H  1.48041e-02  1.21116e-02  4.47254e-03
       O -1.13209e-02 -8.11123e-03  1.05635e-02
       H  1.47951e-02 -1.15331e-02 -5.25667e-03
       H -3.15503e-03  1.86450e-02 -4.81819e-03
       O -1.23604e-02  7.10295e-03  1.05658e-02
       H -2.46294e-03 -1.87742e-02 -4.80138e-03
       H  1.45726e-02  1.18347e-02 -5.51195e-03
       O -1.22144e-02  5.81047e-03  1.04848e-02
       H -2.81646e-03  2.48240e-03 -1.93060e-02
       H  1.49029e-02 -8.41550e-03  9.45465e-03
       O  1.18381e-02 -7.01566e-03  9.80247e-03
       H  3.34623e-03 -1.44885e-03 -1.90930e-02
       H -1.47533e-02  8.06484e-03  9.72548e-03
       O  1.59808e-04 -1.37805e-02 -9.58062e-03
       H  3.95415e-04 -3.47328e-03  1.90273e-02
       H -5.06427e-04  1.68071e-02 -9.85553e-03
       O -9.03675e-04  1.38756e-02 -8.97446e-03
       H  3.23104e-05  3.23209e-03  1.91890e-02
       H  4.25450e-04 -1.68352e-02 -9.97264e-03
       O  9.09508e-05  1.48063e-02 -9.26696e-03
       H -1.76584e-02 -7.02633e-03  4.64116e-03
       H  1.75203e-02 -7.06835e-03  4.56917e-03
       O  1.18360e-02 -6.39703e-03  1.10298e-02
       H  3.29645e-03 -1.97589e-03 -1.90899e-02
       H -1.47844e-02  8.35048e-03  9.35523e-03
       O  1.19841e-02  6.48322e-03 -9.52859e-03
       H  2.93408e-03  1.89135e-03  1.92599e-02
       H -1.47781e-02 -8.48068e-03 -9.85317e-03
       O  1.48484e-06  1.48370e-02 -9.08086e-03
       H  3.82322e-05  2.99188e-03  1.90434e-02
       H  2.44498e-05 -1.69581e-02 -9.78398e-03
       O  1.16328e-02 -6.78339e-03 -1.01725e-02
       H -1.42122e-02 -1.21389e-02  5.39482e-03
       H  2.85855e-03  1.88111e-02  4.53123e-03
       O  1.27346e-02  5.90520e-03 -1.02794e-02
       H -1.45281e-02  1.20173e-02  4.71655e-03
       H  2.67975e-03 -1.85457e-02  5.36688e-03
       O  1.18480e-02 -6.81227e-03  1.05308e-02
       H -1.47467e-02 -1.16387e-02 -4.62076e-03
       H  3.12210e-03  1.85015e-02 -5.37300e-03
       O -1.23992e-03 -1.38917e-02  1.05068e-02
       H -1.74525e-02  7.13396e-03 -5.28444e-03
       H  1.77449e-02  6.58301e-03 -4.82944e-03
       O  1.24746e-04 -1.36173e-02  9.74392e-03
       H -1.34723e-04 -3.41925e-03 -1.93733e-02
       H -1.20327e-04  1.70062e-02  9.64743e-03
       O -1.22277e-03  1.36866e-02  1.06431e-02
       H  6.39607e-04  3.63260e-03 -1.91872e-02
       H  1.94397e-04 -1.71959e-02  9.35987e-03
       O  1.28444e-02  6.23623e-03 -9.32338e-03
       H  2.65075e-03  1.83644e-03  1.92874e-02
       H -1.48104e-02 -7.88190e-03 -9.86003e-03
       O -5.61818e-04  1.42505e-02 -9.99753e-03
       H -1.24582e-04  3.49552e-03  1.91043e-02
       H  5.22420e-04 -1.70249e-02 -9.68594e-03
       O  1.19901e-02 -6.70652e-03 -1.05179e-02
       H -1.42426e-02 -1.20291e-02  5.43314e-03
       H  2.51670e-03  1.86824e-02  4.69006e-03
       O -1.17681e-02  7.57269e-03 -9.65474e-03
       H -3.47374e-03 -1.86716e-02  4.64549e-03
       H  1.47868e-02  1.18145e-02  4.33390e-03
       O -1.22158e-02 -7.62381e-03  9.90458e-03
       H  1.47451e-02 -1.18561e-02 -4.49499e-03
       H -3.35504e-03  1.86627e-02 -4.84330e-03
       O  1.09184e-02 -7.27322e-03 -9.99137e-03
       H  3.63171e-03 -1.36638e-03  1.91841e-02
       H -1.46093e-02  8.53551e-03 -9.68621e-03
       O  1.12078e-02  6.67662e-03  1.06157e-02
       H  3.44596e-03  1.99291e-03 -1.90706e-02
       H -1.47381e-02 -8.51828e-03  9.49347e-03
       O -1.12703e-02 -6.71686e-03  9.48655e-03
       H -3.12282e-03 -1.76241e-03 -1.93394e-02
       H  1.47750e-02  8.44994e-03  9.78099e-03
       O  1.10018e-03 -1.37913e-02 -1.07474e-02
       H -6.24326e-04 -3.49065e-03  1.91863e-02
       H -2.07451e-04  1.72897e-02 -9.20764e-03
       O  1.87126e-04  1.41034e-02 -9.89901e-03
       H -3.15481e-04  3.52424e-03  1.91324e-02
       H  3.77653e-04 -1.67369e-02 -9.75132e-03
       O  1.19829e-02 -6.86562e-03 -1.04069e-02
       H -1.48407e-02 -1.16482e-02  4.60401e-03
       H  3.05940e-03  1.85330e-02  5.43274e-03
       O  1.12036e-05 -1.42381e-02 -8.73172e-03
       H -1.78778e-02  6.78726e-03  4.40412e-03
       H  1.78178e-02  6.93461e-03  4.18387e-03
       O  1.21311e-02  7.62343e-03 -9.10267e-03
       H  2.82691e-03  1.57472e-03  1.90691e-02
       H -1.44590e-02 -8.79594e-03 -9.89952e-03
       O  1.10779e-02 -7.56724e-03 -1.03701e-02
       H  3.42140e-03 -1.29229e-03  1.91389e-02
       H -1.48499e-02  8.70351e-03 -9.43774e-03
       O  1.16096e-02 -7.42479e-03 -9.03193e-03
       H -1.47093e-02 -1.18802e-02  4.96424e-03
       H  2.88946e-03  1.89294e-02  4.23137e-03
       O  1.29200e-02  7.35208e-03 -9.31075e-03
       H -1.49471e-02  1.17491e-02  4.64122e-03
       H  2.56867e-03 -1.88580e-02  4.55603e-03
       O  1.21416e-02  7.14749e-03 -1.01461e-02
       H  3.27739e-03  1.29160e-03  1.91981e-02
       H -1.49278e-02 -8.23620e-03 -9.47250e-03
       O -6.45123e-04 -1.42195e-02  9.67049e-03
       H -1.77149e-02  6.71612e-03 -4.58508e-03
       H  1.79832e-02  6.40458e-03 -4.66615e-03
       O -1.27737e-02 -6.59894e-03 -1.00222e-02
       H  1.43806e-02 -1.21275e-02  4.70396e-03
       H -2.83504e-03  1.87073e-02  4.83597e-03
       O -1.27403e-02  6.61201e-03 -1.01823e-02
       H -2.75574e-03 -1.86681e-02  4.67083e-03
       H  1.48117e-02  1.21878e-02  4.79762e-03
       O  5.60810e-04  1.40834e-02  8.90589e-03
       H -1.78523e-02 -7.00999e-03 -4.48608e-03
       H  1.76115e-02 -6.80879e-03 -4.91158e-03
       O -1.12235e-02 -7.36728e-03 -1.02689e-02
       H -3.32690e-03 -1.49563e-03  1.90567e-02
       H  1.47903e-02  8.68446e-03 -9.46438e-03
       O -1.22381e-02  7.18519e-03  9.91420e-03
       H -2.91999e-03  1.89759e-03 -1.89818e-02
       H  1.43576e-02 -8.85031e-03  9.67689e-03
       O  1.25857e-02  6.61578e-03 -1.01730e-02
       H -1.47228e-02  1.20962e-02  4.75158e-03
       H  2.89882e-03 -1.85772e-02  4.56709e-03
       O  6.67044e-05  1.48820e-02  8.97832e-03
       H -1.77163e-02 -7.03229e-03 -4.31901e-03
       H  1.78402e-02 -7.09329e-03 -4.57451e-03
       O  1.28651e-03 -1.38815e-02  1.03339e-02
       H -1.77105e-02  6.48531e-03 -4.73129e-03
       H  1.73454e-02  6.84802e-03 -5.30622e-03
       O  2.39333e-04 -1.31075e-02  9.36253e-03
       H  2.83064e-06 -3.51463e-03 -1.92114e-02
       H -3.72594e-05  1.69753e-02  9.71283e-03
       O  2.84811e-04  1.44434e-02  1.02713e-02
       H  2.16063e-04  3.38195e-03 -1.90286e-02
       H -3.87612e-04 -1.70505e-02  9.40537e-03
       O -1.17950e-02 -7.57406e-03  9.95574e-03
       H  1.45780e-02 -1.18350e-02 -4.74217e-03
       H -3.31729e-03  1.86574e-02 -4.73368e-03
       O  1.19024e-02 -6.79449e-03 -9.93790e-03
       H  2.99296e-03 -2.15195e-03  1.92562e-02
       H -1.43886e-02  8.82120e-03 -9.71386e-03
       O  1.10527e-02  7.13333e-03  9.99993e-03
       H  3.42541e-03  1.57685e-03 -1.91539e-02
       H -1.46507e-02 -8.61511e-03  9.63735e-03
       O  1.02296e-03 -1.42200e-02 -1.05944e-02
       H -1.75622e-02  6.69180e-03  5.01971e-03
       H  1.73551e-02  7.12598e-03  5.34401e-03
       O -1.06508e-03 -1.38543e-02 -9.06379e-03
       H  1.33592e-04 -3.47722e-03  1.91803e-02
       H  5.00924e-04  1.69030e-02 -1.00107e-02
       O  1.22592e-02  6.72219e-03  1.03380e-02
       H -1.44134e-02  1.19472e-02 -5.35524e-03
       H  2.57392e-03 -1.86698e-02 -4.84698e-03
       O -6.74599e-04  1.40643e-02 -9.60515e-03
       H -1.76374e-02 -6.76961e-03  4.59701e-03
       H  1.79783e-02 -6.22096e-03  4.66635e-03
       O -1.22694e-02 -6.27200e-03  1.07346e-02
       H -2.95685e-03 -2.09841e-03 -1.92102e-02
       H  1.49435e-02  8.53541e-03  9.22377e-03
       O -1.25341e-02 -6.72940e-03  1.02269e-02
       H  1.45407e-02 -1.20668e-02 -4.94039e-03
       H -2.80885e-03  1.86475e-02 -4.58990e-03
       O  1.25132e-02  6.81490e-03  9.20643e-03
       H -1.51195e-02  1.18015e-02 -4.50561e-03
       H  2.84018e-03 -1.87024e-02 -4.89361e-03
       O  1.26189e-02  5.96527e-03  8.95065e-03
       H  2.82775e-03  1.75274e-03 -1.92017e-02
       H -1.47827e-02 -8.00104e-03  1.00012e-02
       O  1.26332e-02 -6.41950e-03  9.26370e-03
       H  2.91612e-03 -1.59195e-03 -1.91229e-02
       H -1.48071e-02  8.06373e-03  9.87524e-03
       O  1.24781e-02 -5.94653e-03  1.04775e-02
       H -1.46986e-02 -1.19778e-02 -4.79557e-03
       H  2.75114e-03  1.84481e-02 -5.29128e-03
       O -1.09436e-02  7.57153e-03  1.02446e-02
       H -3.34697e-03 -1.85581e-02 -4.53970e-03
       H  1.45432e-02  1.17913e-02 -5.09743e-03
       O  1.90453e-04 -1.48049e-02  9.10073e-03
       H -2.25183e-04 -3.17611e-03 -1.91767e-02
       H -5.48010e-05  1.67045e-02  9.98559e-03
       O -1.19208e-02 -6.82396e-03  9.72360e-03
       H -3.45720e-03 -1.42293e-03 -1.90094e-02
       H  1.48440e-02  8.18453e-03  9.84856e-03
       O -1.29266e-02  5.84374e-03 -9.33200e-03
       H -2.80225e-03  1.85467e-03  1.92733e-02
       H  1.48348e-02 -7.87361e-03 -9.87039e-03
       O -1.22312e-02 -6.29683e-03 -1.05495e-02
       H -2.96734e-03 -2.07762e-03  1.90962e-02
       H  1.49428e-02  8.49847e-03 -9.38501e-03
       O -1.18695e-02 -7.72336e-03 -9.38501e-03
       H  1.47685e-02 -1.16509e-02  5.27530e-03
       H -2.70877e-03  1.88266e-02  4.50838e-03
       O -7.82763e-05  1.29529e-02  1.06924e-02
       H -8.73823e-05  3.99118e-03 -1.91028e-02
       H  4.81861e-05 -1.69150e-02  9.39738e-03
       O  1.20655e-02  7.40834e-03 -9.84757e-03
       H  2.82409e-03  1.95526e-03  1.91001e-02
       H -1.42404e-02 -8.85588e-03 -9.78018e-03
       O  1.22856e-02 -7.94691e-03 -9.66642e-03
       H  2.69552e-03 -1.46821e-03  1.91682e-02
       H -1.46798e-02  8.95067e-03 -9.48580e-03
       O  2.72361e-04  1.38553e-02 -1.04945e-02
       H -1.75684e-02 -6.41765e-03  5.41155e-03
       H  1.74835e-02 -7.23791e-03  4.68916e-03
       O -1.02180e-04  1.41131e-02  1.01755e-02
       H  5.17178e-04  3.53822e-03 -1.91840e-02
       H -3.06713e-04 -1.69047e-02  9.61498e-03
       O -1.14916e-02 -7.72335e-03  1.03808e-02
       H  1.45740e-02 -1.16332e-02 -5.27983e-03
       H -2.85778e-03  1.87287e-02 -4.74289e-03
       O -1.18181e-02  7.43576e-03  8.94510e-03
       H -2.98995e-03 -1.88963e-02 -4.46537e-03
       H  1.46911e-02  1.19073e-02 -4.94888e-03
       O -1.31952e-02  7.31300e-03  9.37896e-03
       H -2.58124e-03  1.63047e-03 -1.91829e-02
       H  1.46258e-02 -8.29641e-03  9.84562e-03
       O -1.21635e-02 -7.63168e-03  9.23573e-03
       H -2.70673e-03 -1.64247e-03 -1.92156e-02
       H  1.44369e-02  8.87333e-03  9.91095e-03
       O -1.07108e-02  7.39307e-03 -1.00880e-02
       H -3.61779e-03  1.42258e-03  1.90916e-02
       H  1.45560e-02 -8.52745e-03 -9.55106e-03
       O  1.10049e-02  7.81587e-03  1.04654e-02
       H -1.46746e-02  1.17228e-02 -5.21891e-03
       H  3.36366e-03 -1.87399e-02 -4.67496e-03
       O  1.26567e-02 -6.48573e-03 -9.47527e-03
       H -1.43702e-02 -1.23127e-02  4.59750e-03
       H  2.89500e-03  1.86096e-02  4.56474e-03
       O -1.26998e-02  6.58573e-03 -1.00200e-02
       H -2.87355e-03 -1.87056e-02  4.82066e-03
       H  1.42960e-02  1.22106e-02  4.77163e-03
       O -1.03091e-04  1.47830e-02  8.93624e-03
       H -1.77922e-02 -6.99644e-03 -4.54964e-03
       H  1.77555e-02 -7.00676e-03 -4.34495e-03
       O -1.65125e-04 -1.40880e-02  1.07515e-02
       H -1.74427e-02  7.09417e-03 -4.85518e-03
       H  1.75511e-02  6.64725e-03 -5.57881e-03
       O -7.61612e-05 -1.36325e-02  9.66610e-03
       H  7.50431e-05 -3.29242e-03 -1.91950e-02
       H -1.37574e-05  1.72287e-02  9.42922e-03
       O  3.21991e-04  1.53315e-02  9.24093e-03
       H -1.39659e-04  2.90221e-03 -1.91785e-02
       H -6.23823e-05 -1.69756e-02  9.80592e-03
       O  1.20783e-02 -6.15915e-03  9.41773e-03
       H -1.49178e-02 -1.20355e-02 -4.37426e-03
       H  2.93642e-03  1.86107e-02 -5.06156e-03
       O  8.35591e-05 -1.45286e-02  9.18719e-03
       H -1.76990e-02  6.96843e-03 -4.50381e-03
       H  1.76666e-02  7.13726e-03 -4.39160e-03
       O  3.11107e-04 -1.36278e-02  9.43267e-03
       H  6.96767e-05 -3.40810e-03 -1.92196e-02
       H -1.02257e-04  1.69663e-02  9.74658e-03
       O -1.23601e-02 -6.99460e-03  9.98117e-03
       H -3.09819e-03 -1.68980e-03 -1.91776e-02
       H  1.48771e-02  8.18376e-03  9.74487e-03
       O -1.20561e-02  6.66748e-03 -9.81378e-03
       H -2.84265e-03  1.98784e-03  1.91661e-02
       H  1.45429e-02 -8.56537e-03 -9.68927e-03
       O  1.26862e-02 -6.94103e-03 -1.03801e-02
       H  2.60211e-03 -2.30656e-03  1.91757e-02
       H -1.46847e-02  8.80136e-03 -9.36045e-03
       O  1.25638e-02 -7.19323e-03 -9.34718e-03
       H -1.48315e-02 -1.19286e-02  4.62739e-03
       H  2.72782e-03  1.88628e-02  4.52038e-03
       O  6.37341e-04 -1.40727e-02 -9.56924e-03
       H -1.76634e-02  6.93204e-03  4.47197e-03
       H  1.76003e-02  7.12258e-03  5.07039e-03
       O -6.87698e-04 -1.44202e-02 -9.48877e-03
       H  9.40632e-06 -3.21795e-03  1.91308e-02
       H  3.88555e-04  1.70343e-02 -9.74489e-03
       O -9.40658e-04  1.42401e-02 -9.26471e-03
       H  1.54526e-04  3.23058e-03  1.90685e-02
       H  5.77598e-04 -1.71076e-02 -9.67478e-03
       O  1.20952e-02 -5.71668e-03 -1.01271e-02
       H -1.45055e-02 -1.21365e-02  4.60542e-03
       H  2.77063e-03  1.85596e-02  5.04377e-03
       O  6.58188e-04 -1.40653e-02 -9.49831e-03
       H -1.76541e-02  6.97117e-03  4.47338e-03
       H  1.75553e-02  7.10708e-03  5.15209e-03
       O  1.19969e-02  6.89551e-03 -9.57733e-03
       H  2.79942e-03  2.33648e-03  1.90871e-02
       H -1.44438e-02 -8.75987e-03 -9.85443e-03
       O -1.28817e-02 -6.68594e-03 -9.61599e-03
       H -2.71490e-03 -1.68662e-03  1.92160e-02
       H  1.49783e-02  8.28803e-03 -9.71108e-03
       O -1.20420e-02 -7.94093e-03 -9.91325e-03
       H  1.48529e-02 -1.16423e-02  4.71606e-03
       H -3.29195e-03  1.85914e-02  4.76230e-03
       O  1.43101e-03  1.34246e-02  1.02891e-02
       H -6.01913e-04  3.65826e-03 -1.92755e-02
       H -2.56443e-04 -1.69764e-02  9.52889e-03
       O  6.26793e-04  1.43261e-02  1.01283e-02
       H -1.78882e-02 -6.62622e-03 -4.85769e-03
       H  1.75533e-02 -6.89987e-03 -4.61459e-03
       O  2.72555e-04 -1.38487e-02  1.02547e-02
       H -1.76921e-02  6.42318e-03 -5.20040e-03
       H  1.76194e-02  7.02488e-03 -4.73526e-03
       O -8.26175e-04 -1.31790e-02  1.00017e-02
       H  4.92095e-04 -3.74047e-03 -1.91332e-02
       H  2.02924e-04  1.70358e-02  9.63584e-03
       O -1.16011e-02  6.82944e-03 -1.00007e-02
       H -3.27816e-03 -1.85538e-02  5.06646e-03
       H  1.47479e-02  1.18115e-02  4.53866e-03
       O -1.16155e-02 -6.80724e-03  1.02228e-02
       H  1.47753e-02 -1.16244e-02 -4.53842e-03
       H -3.28909e-03  1.83557e-02 -5.33973e-03
       O  1.18613e-02 -6.31947e-03 -1.03285e-02
       H  3.01474e-03 -2.16125e-03  1.92005e-02
       H -1.46803e-02  8.49364e-03 -9.51721e-03
       O -1.17770e-03 -1.37738e-02  1.06554e-02
       H  6.21240e-04 -3.48032e-03 -1.92591e-02
       H  2.19201e-04  1.71584e-02  9.33664e-03
       O  1.26453e-02 -6.16509e-03  9.34578e-03
       H  2.79523e-03 -1.74605e-03 -1.90885e-02
       H -1.49853e-02  8.08782e-03  9.72765e-03
       O  1.28815e-02 -6.00910e-03  1.07619e-02
       H -1.46693e-02 -1.19829e-02 -4.92494e-03
       H  2.51839e-03  1.85382e-02 -5.53363e-03
       O  5.70218e-04 -1.44177e-02  9.71859e-03
       H -1.76076e-02  7.20653e-03 -4.64426e-03
       H  1.74125e-02  7.04883e-03 -5.30549e-03
       O -7.57456e-04 -1.35459e-02  1.03101e-02
       H  2.46308e-04 -3.71863e-03 -1.92734e-02
       H  1.95038e-04  1.71432e-02  9.53827e-03
       O  1.10520e-02 -7.84947e-03  1.04016e-02
       H  3.41870e-03 -1.36544e-03 -1.92556e-02
       H -1.46449e-02  8.67322e-03  9.49463e-03
       O -2.48027e-05 -1.35245e-02 -1.08936e-02
       H -2.03137e-06 -3.65364e-03  1.90190e-02
       H -8.36609e-05  1.73105e-02 -9.32408e-03
       O -1.25762e-02 -7.55186e-03 -1.02895e-02
       H -2.67230e-03 -1.91694e-03  1.91168e-02
       H  1.46226e-02  8.97293e-03 -9.36320e-03
       O -3.29390e-05  1.40716e-02 -9.09485e-03
       H -1.77681e-02 -6.88354e-03  4.42766e-03
       H  1.78513e-02 -6.79235e-03  4.45253e-03
       O  1.26992e-02  6.69677e-03 -1.01952e-02
       H -1.44835e-02  1.20100e-02  4.70201e-03
       H  2.68325e-03 -1.87997e-02  4.70442e-03
       O -5.75824e-04  1.44153e-02  9.45758e-03
       H -1.77431e-02 -6.92407e-03 -4.41352e-03
       H  1.79292e-02 -6.48953e-03 -4.64402e-03
       O  2.46369e-04 -1.38340e-02  1.04536e-02
       H -1.76000e-02  6.39598e-03 -5.40075e-03
       H  1.75438e-02  7.03935e-03 -4.92877e-03
       O -1.06761e-03 -1.30236e-02  1.01001e-02
       H  5.42222e-04 -3.85014e-03 -1.90775e-02
       H  1.53531e-04  1.69658e-02  9.55511e-03
       O  1.22598e-02  5.78950e-03 -1.00916e-02
       H -1.45228e-02  1.23222e-02  4.60650e-03
       H  2.81950e-03 -1.86806e-02  5.06312e-03
       O -1.26577e-03 -1.43117e-02 -9.29982e-03
       H  1.01685e-04 -3.25440e-03  1.92703e-02
       H  7.02284e-04  1.69359e-02 -9.88021e-03
       O -1.22804e-02 -6.01725e-03 -1.02266e-02
       H -2.88318e-03 -2.06853e-03  1.92262e-02
       H  1.47988e-02  8.46583e-03 -9.56263e-03
       O -1.24462e-02 -6.81061e-03 -9.56058e-03
       H  1.51119e-02 -1.17236e-02  4.59803e-03
       H -2.80019e-03  1.86859e-02  5.10687e-03
       O -1.23930e-02 -6.96208e-03  1.00279e-02
       H -2.68213e-03 -2.21909e-03 -1.91357e-02
       H  1.44816e-02  8.67020e-03  9.69217e-03
       O -1.34101e-04 -1.41078e-02 -1.00935e-02
       H -2.64698e-04 -3.42190e-03  1.91679e-02
       H  5.34114e-04  1.70504e-02 -9.44773e-03
       O  1.25211e-02 -7.82796e-03 -9.00962e-03
       H  2.75755e-03 -1.45533e-03  1.90770e-02
       H -1.44464e-02  8.38840e-03 -9.96319e-03
       O -6.54955e-04  1.37660e-02 -9.98960e-03
       H -1.76294e-02 -6.54913e-03  4.61215e-03
       H  1.78464e-02 -6.28458e-03  4.73111e-03
       O -8.37709e-05 -1.44584e-02 -9.33060e-03
       H -1.77527e-02  7.11225e-03  4.49774e-03
       H  1.77044e-02  6.84460e-03  4.61664e-03
       O  1.16258e-03 -1.45400e-02 -9.67125e-03
       H -2.93209e-04 -3.02777e-03  1.92814e-02
       H -5.62672e-04  1.70610e-02 -9.55168e-03
       O  1.20284e-02  7.59717e-03  9.59075e-03
       H -1.46588e-02  1.19141e-02 -4.55906e-03
       H  3.41052e-03 -1.86332e-02 -4.56957e-03
       O  1.21991e-02 -7.16507e-03 -1.07017e-02
       H -1.49824e-02 -1.14207e-02  4.83688e-03
       H  2.97801e-03  1.83832e-02  5.56702e-03
       O  4.94374e-05 -1.42747e-02 -8.65186e-03
       H -1.78704e-02  6.69380e-03  4.50697e-03
       H  1.78611e-02  6.82317e-03  4.30184e-03
       O -1.22687e-02 -6.44416e-03  1.01275e-02
       H  1.44383e-02 -1.22274e-02 -4.71009e-03
       H -2.97669e-03  1.87829e-02 -4.60355e-03
       O  1.12812e-02 -7.37477e-03 -1.04113e-02
       H  3.35100e-03 -1.56580e-03  1.92498e-02
       H -1.47123e-02  8.57558e-03 -9.50248e-03
       O  1.20326e-02  6.86123e-03  9.78272e-03
       H  3.31307e-03  1.39962e-03 -1.91165e-02
       H -1.48701e-02 -8.12417e-03  9.74970e-03
       O  1.21351e-02 -7.25973e-03  1.00322e-02
       H  3.35361e-03 -1.26383e-03 -1.91917e-02
       H -1.46926e-02  8.27210e-03  9.68845e-03
       O  1.09576e-02  7.16595e-03 -9.98061e-03
       H  3.45674e-03  1.40849e-03  1.92097e-02
       H -1.45866e-02 -8.45793e-03 -9.58086e-03
       O -1.16253e-02  6.90904e-03  1.01607e-02
       H -3.46816e-03 -1.85524e-02 -5.36851e-03
       H  1.48968e-02  1.18290e-02 -4.43314e-03
       O -1.23819e-02 -7.23659e-03 -8.75111e-03
       H  1.45708e-02 -1.20364e-02  4.40472e-03
       H -3.07590e-03  1.87501e-02  4.48595e-03
       O -1.25277e-02  5.93255e-03 -1.04242e-02
       H -2.76276e-03 -1.84671e-02  5.18020e-03
       H  1.46737e-02  1.21160e-02  4.83471e-03
       O -1.15528e-02  6.44711e-03 -9.31126e-03
       H -3.10746e-03  1.75410e-03  1.92542e-02
       H  1.47836e-02 -8.40296e-03 -9.85994e-03
       O  1.25970e-02 -6.75705e-03 -9.14256e-03
       H  2.83219e-03 -1.58799e-03  1.91327e-02
       H -1.48446e-02  8.07821e-03 -9.93953e-03
       O  1.20883e-02 -7.81172e-03 -1.01263e-02
       H -1.49695e-02 -1.15530e-02  4.58695e-03
       H  3.24393e-03  1.85667e-02  4.79218e-03
       O -1.29041e-02  6.56219e-03 -9.81307e-03
       H -2.74973e-03 -1.88101e-02  4.65554e-03
       H  1.44030e-02  1.22042e-02  4.69022e-03
       O -8.38902e-05  1.37763e-02  9.81256e-03
       H -1.76635e-02 -6.86375e-03 -4.50655e-03
       H  1.78135e-02 -6.43413e-03 -5.20267e-03
       O -1.23371e-02 -6.86900e-03 -1.00092e-02
       H -3.18449e-03 -1.59608e-03  1.91224e-02
       H  1.47886e-02  7.96060e-03 -9.70043e-03
       O -1.12828e-02  7.70278e-03  1.02081e-02
       H -3.43878e-03  1.18077e-03 -1.90948e-02
       H  1.48162e-02 -8.73539e-03  9.55024e-03
       O  1.21226e-02  6.37580e-03 -9.28951e-03
       H -1.48365e-02  1.19377e-02  4.55022e-03
       H  2.86361e-03 -1.86364e-02  5.02509e-03
       O  1.22804e-02  7.05412e-03 -9.91709e-03
       H  3.12604e-03  1.35225e-03  1.90501e-02
       H -1.49827e-02 -8.09713e-03 -9.63795e-03
       O -1.22001e-02  6.74270e-03  1.01916e-02
       H -2.61092e-03 -1.88359e-02 -4.78257e-03
       H  1.43933e-02  1.20851e-02 -5.25530e-03
       O -1.19598e-02 -7.67778e-03 -1.00302e-02
       H  1.49849e-02 -1.16701e-02  4.59987e-03
       H -3.27149e-03  1.84701e-02  4.76139e-03
       O -1.24168e-02  7.12461e-03 -8.80518e-03
       H -3.04125e-03 -1.88780e-02  4.46792e-03
       H  1.49495e-02  1.20161e-02  4.14892e-03
       O -1.21805e-02  7.09301e-03 -1.01422e-02
       H -2.71491e-03  2.01695e-03  1.90691e-02
       H  1.45558e-02 -8.97303e-03 -9.41104e-03
       O  1.21845e-02 -7.05059e-03 -1.01532e-02
       H  3.11050e-03 -1.28119e-03  1.91472e-02
       H -1.49532e-02  8.18963e-03 -9.43176e-03