576
# CELL(abcABC):   34.06844    44.25621    27.81677    90.00000    90.00000    90.00000  Step:           0  Bead:       0 forces{atomic_unit}  cell{atomic_unit}
       O  1.19031e-02 -7.08367e-03  9.64709e-03
       H  3.30999e-03 -1.34112e-03 -1.90988e-02
       H -1.47849e-02  8.14574e-03  9.77633e-03
       O  1.21571e-02  6.15318e-03 -1.02613e-02
       H  2.97311e-03  2.04120e-03  1.92495e-02
       H -1.48517e-02 -8.38313e-03 -9.51836e-03
       O -8.19998e-06  1.31934e-02 -9.35859e-03
       H  2.18252e-04  3.64488e-03  1.92816e-02
       H  1.49972e-06 -1.70626e-02 -9.85449e-03
       O -1.18243e-03  1.41233e-02 -1.07024e-02
       H -1.73385e-02 -7.00129e-03  5.41954e-03
       H  1.76805e-02 -6.68328e-03  4.94266e-03
       O  4.19392e-04  1.41217e-02  1.01543e-02
       H -4.63529e-04  3.53928e-03 -1.91888e-02
       H  1.90515e-04 -1.69294e-02  9.62519e-03
       O -1.08966e-02  7.39678e-03 -9.95163e-03
       H -3.40530e-03  1.66100e-03  1.91995e-02
       H  1.46073e-02 -8.72794e-03 -9.64937e-03
       O  1.26372e-02  7.23410e-03  8.53145e-03
       H -1.48434e-02  1.20062e-02 -4.25457e-03
       H  2.97656e-03 -1.88809e-02 -4.42411e-03
       O  1.18323e-02 -7.54186e-03 -9.91075e-03
       H -1.46225e-02 -1.19528e-02  4.60990e-03
       H  3.41574e-03  1.86751e-02  4.64017e-03
       O -1.20123e-02  6.79329e-03 -1.04903e-02
       H -2.61190e-03 -1.87136e-02  4.73747e-03
       H  1.43694e-02  1.19949e-02  5.42350e-03
       O -2.79929e-04 -1.43874e-02 -1.03303e-02
       H  5.80744e-04 -3.46989e-03  1.91062e-02
       H -2.94426e-04  1.70352e-02 -9.57062e-03
       O -2.15940e-04 -1.36614e-02  1.02707e-02
       H -1.75808e-02  6.91934e-03 -4.73896e-03
       H  1.77106e-02  6.48726e-03 -5.32270e-03
       O -1.24123e-02 -5.74098e-03 -9.97574e-03
       H  1.45984e-02 -1.21858e-02  4.58273e-03
       H -2.82269e-03  1.84934e-02  5.13289e-03
       O -4.20183e-04 -1.44594e-02 -9.67184e-03
       H -1.75070e-02  7.13102e-03  5.22090e-03
       H  1.75642e-02  7.22647e-03  4.61408e-03
       O  1.20521e-03 -1.42476e-02 -9.20119e-03
       H -1.06814e-04 -3.33792e-03  1.91600e-02
       H -5.64585e-04  1.69181e-02 -9.99150e-03
       O  1.31284e-02 -6.22265e-03 -9.66320e-03
       H  2.55266e-03 -1.72108e-03  1.92463e-02
       H -1.50551e-02  8.10011e-03 -9.63371e-03
       O  1.22353e-02 -6.32761e-03 -9.45626e-03
       H -1.50370e-02 -1.19852e-02  4.51464e-03
       H  2.86121e-03  1.86942e-02  5.07216e-03
       O  1.15155e-02 -6.83794e-03  1.13060e-02
       H  3.39470e-03 -1.77532e-03 -1.91541e-02
       H -1.48342e-02  8.67349e-03  9.00962e-03
       O  1.27327e-02  7.05292e-03 -8.52601e-03
       H  2.68490e-03  1.57784e-03  1.89906e-02
       H -1.44390e-02 -8.31654e-03 -1.02447e-02
       O -1.24323e-02 -7.57784e-03 -1.04830e-02
       H -3.09226e-03 -1.13082e-03  1.92178e-02
       H  1.49772e-02  8.42437e-03 -9.35224e-03
       O -1.24047e-02 -7.32907e-03 -9.15059e-03
       H  1.49509e-02 -1.18758e-02  4.52497e-03
       H -3.10171e-03  1.87732e-02  4.43042e-03
       O -1.19016e-02  7.77434e-03 -1.01154e-02
       H -3.46744e-03 -1.85296e-02  4.68527e-03
       H  1.48790e-02  1.16726e-02  4.62287e-03
       O -1.24134e-02 -6.99244e-03  8.74240e-03
       H  1.48709e-02 -1.21035e-02 -4.18702e-03
       H -3.02890e-03  1.87855e-02 -4.42666e-03
       O  1.32323e-02 -7.17123e-03 -8.80872e-03
       H  2.50768e-03 -1.57216e-03  1.90428e-02
       H -1.45519e-02  8.30013e-03 -1.01674e-02
       O  1.15472e-02  6.71828e-03  1.11026e-02
       H  3.26390e-03  1.81725e-03 -1.90018e-02
       H -1.48424e-02 -8.63357e-03  9.17906e-03
       O  1.23216e-02  6.73825e-03 -9.52732e-03
       H -1.50422e-02  1.16590e-02  4.55260e-03
       H  2.86290e-03 -1.86263e-02  5.06452e-03
       O  1.12533e-02  8.09462e-03 -1.06017e-02
       H  3.49808e-03  1.14274e-03  1.91679e-02
       H -1.47663e-02 -8.89626e-03 -9.39781e-03
       O -2.03730e-04  1.38043e-02 -9.94329e-03
       H  5.39403e-05  3.25588e-03  1.92587e-02
       H -3.68662e-05 -1.71860e-02 -9.49944e-03
       O -1.33025e-03  1.38753e-02 -1.01551e-02
       H -1.74341e-02 -6.87139e-03  5.29675e-03
       H  1.77668e-02 -6.49096e-03  4.53034e-03
       O  1.21281e-02  7.79273e-03 -9.98732e-03
       H -1.47928e-02  1.17189e-02  4.62361e-03
       H  3.32427e-03 -1.88607e-02  4.99877e-03
       O  1.14711e-02 -7.78820e-03  1.04736e-02
       H -1.46502e-02 -1.16430e-02 -5.35049e-03
       H  2.98875e-03  1.87597e-02 -4.77162e-03
       O  1.25437e-02  7.46076e-03  9.01112e-03
       H -1.48526e-02  1.17840e-02 -4.56904e-03
       H  2.91419e-03 -1.87376e-02 -4.53910e-03
       O  1.31765e-02  6.23668e-03  9.64505e-03
       H  2.55443e-03  1.87028e-03 -1.92149e-02
       H -1.51095e-02 -8.09315e-03  9.54594e-03
       O  1.14910e-02 -7.86947e-03  9.00594e-03
       H  2.89021e-03 -1.70643e-03 -1.91820e-02
       H -1.43967e-02  8.90612e-03  9.97054e-03
       O -6.29109e-04  1.36616e-02  9.93897e-03
       H -1.76387e-02 -6.73273e-03 -4.44752e-03
       H  1.78103e-02 -6.27219e-03 -4.59113e-03
       O -1.16086e-02  6.81951e-03  1.02766e-02
       H -3.31386e-03 -1.84566e-02 -5.21708e-03
       H  1.48248e-02  1.17702e-02 -4.52931e-03
       O -9.15956e-05 -1.46773e-02  9.02199e-03
       H  8.79086e-05 -3.06232e-03 -1.90564e-02
       H  3.42549e-05  1.68993e-02  9.93542e-03
       O  1.17986e-02  6.77333e-03 -1.00011e-02
       H -1.43503e-02  1.21395e-02  5.28743e-03
       H  2.75469e-03 -1.87984e-02  4.33517e-03
       O -6.25757e-04 -1.45421e-02 -9.53268e-03
       H -1.90822e-07 -3.15320e-03  1.91269e-02
       H  3.57725e-04  1.71028e-02 -9.71249e-03
       O -4.98214e-04 -1.42425e-02  9.32006e-03
       H -1.74931e-02  6.95315e-03 -5.15694e-03
       H  1.77246e-02  7.05684e-03 -4.61965e-03
       O  1.25085e-02 -5.94118e-03 -1.02687e-02
       H -1.47835e-02 -1.20407e-02  4.75204e-03
       H  2.73268e-03  1.84250e-02  5.11950e-03
       O  4.90290e-04 -1.37706e-02 -9.11258e-03
       H -1.78062e-02  6.87274e-03  4.43441e-03
       H  1.76289e-02  6.75363e-03  4.97212e-03
       O -1.19520e-02 -6.86242e-03  1.05596e-02
       H  1.43216e-02 -1.20129e-02 -5.47651e-03
       H -2.53508e-03  1.90093e-02 -4.75880e-03
       O -1.28480e-02 -5.92831e-03 -9.36025e-03
       H -2.73959e-03 -1.82359e-03  1.93253e-02
       H  1.48574e-02  7.96716e-03 -9.83234e-03
       O -1.15029e-02  7.25867e-03  1.02278e-02
       H -3.41469e-03  1.49487e-03 -1.92391e-02
       H  1.47197e-02 -8.55996e-03  9.70760e-03
       O -1.14194e-02 -8.02019e-03  1.05907e-02
       H -3.31968e-03 -1.25946e-03 -1.92116e-02
       H  1.47746e-02  8.87184e-03  9.39421e-03
       O -1.26920e-02  6.33776e-03 -9.27079e-03
       H -2.81015e-03  1.69342e-03  1.91413e-02
       H  1.48313e-02 -8.03096e-03 -9.82438e-03
       O -1.24664e-02  6.86854e-03  1.05292e-02
       H -2.37320e-03 -1.87234e-02 -4.78433e-03
       H  1.46063e-02  1.19859e-02 -5.52568e-03
       O  5.76190e-04  1.37243e-02 -9.19446e-03
       H -1.78607e-02 -6.82581e-03  4.47900e-03
       H  1.76244e-02 -6.77711e-03  5.03007e-03
       O  1.28854e-02 -6.48922e-03  9.16835e-03
       H  2.68987e-03 -1.50952e-03 -1.90859e-02
       H -1.48707e-02  8.04099e-03  9.89240e-03
       O  1.26353e-02 -6.10413e-03  1.00391e-02
       H -1.47231e-02 -1.19707e-02 -4.78669e-03
       H  2.75298e-03  1.84160e-02 -5.15547e-03
       O -1.25971e-02  6.40058e-03  1.02341e-02
       H -2.66361e-03 -1.86599e-02 -4.62876e-03
       H  1.43596e-02  1.22042e-02 -4.85870e-03
       O  3.08413e-04 -1.45260e-02  1.03471e-02
       H  1.97822e-04 -3.31466e-03 -1.90286e-02
       H -5.04140e-04  1.70770e-02  9.34886e-03
       O -5.20351e-05 -1.35113e-02 -1.01065e-02
       H -1.75631e-02  7.04947e-03  4.48829e-03
       H  1.76608e-02  6.34225e-03  5.39348e-03
       O  1.17431e-02 -6.65594e-03  9.97922e-03
       H -1.43728e-02 -1.21955e-02 -5.05586e-03
       H  3.02334e-03  1.87669e-02 -4.54830e-03
       O -4.38460e-06 -1.41038e-02  8.94152e-03
       H -1.77453e-02  6.70401e-03 -4.44156e-03
       H  1.77754e-02  6.78277e-03 -4.30646e-03
       O  1.22767e-02  8.03477e-03  9.51088e-03
       H  2.57607e-03  1.46397e-03 -1.90948e-02
       H -1.45761e-02 -9.01385e-03  9.58856e-03
       O -1.26607e-02 -7.21837e-03  8.59718e-03
       H -2.75624e-03 -1.64193e-03 -1.90319e-02
       H  1.44871e-02  8.34322e-03  1.02367e-02
       O -1.11685e-02  6.47445e-03 -1.08813e-02
       H -3.39483e-03  2.08484e-03  1.91426e-02
       H  1.46147e-02 -8.36913e-03 -9.34938e-03
       O  1.14300e-02  7.81749e-03  1.04418e-02
       H -1.45837e-02  1.16384e-02 -5.17576e-03
       H  3.07801e-03 -1.87341e-02 -4.76560e-03
       O  1.25109e-02 -7.32132e-03 -8.67624e-03
       H -1.47947e-02 -1.20459e-02  4.43606e-03
       H  3.08187e-03  1.89007e-02  4.28603e-03
       O -1.78302e-04  1.32400e-02  9.16332e-03
       H  4.54329e-05  3.59841e-03 -1.91949e-02
       H  7.43532e-06 -1.69922e-02  9.96189e-03
       O  1.47574e-04  1.47108e-02  9.04357e-03
       H -1.77419e-02 -6.82981e-03 -4.52247e-03
       H  1.77511e-02 -6.94837e-03 -4.56946e-03
       O -8.32502e-04 -1.41536e-02  1.01310e-02
       H -1.75102e-02  6.98458e-03 -4.58404e-03
       H  1.77697e-02  6.32839e-03 -4.67395e-03
       O -1.44349e-04 -1.31206e-02  9.23315e-03
       H -8.75699e-05 -3.53367e-03 -1.92455e-02
       H  3.12912e-06  1.68683e-02  9.87433e-03
       O  2.95516e-04  1.44898e-02  1.06526e-02
       H  2.51901e-04  3.37205e-03 -1.92881e-02
       H -4.60480e-04 -1.71781e-02  9.27918e-03
       O  1.23977e-02  6.32132e-03 -9.00523e-03
       H  2.80686e-03  1.78655e-03  1.91553e-02
       H -1.49298e-02 -8.10115e-03 -1.00093e-02
       O -1.19704e-02 -6.49227e-03 -1.15090e-02
       H -3.16022e-03 -2.11336e-03  1.92310e-02
       H  1.48772e-02  8.49615e-03 -8.95718e-03
       O -1.27234e-02 -7.28735e-03 -9.10443e-03
       H  1.49048e-02 -1.19495e-02  4.38159e-03
       H -2.90957e-03  1.89878e-02  4.68881e-03
       O -1.17709e-02  6.85664e-03 -1.00115e-02
       H -3.30411e-03 -1.84276e-02  5.24349e-03
       H  1.49637e-02  1.17558e-02  4.55101e-03
       O -1.15321e-02 -7.46143e-03  9.24005e-03
       H  1.46670e-02 -1.18100e-02 -4.98924e-03
       H -3.01738e-03  1.89108e-02 -4.43115e-03
       O -1.10416e-02 -7.99491e-03 -1.02780e-02
       H -3.47653e-03 -1.32235e-03  1.92297e-02
       H  1.46814e-02  8.84301e-03 -9.54985e-03
       O -1.19163e-02  6.35316e-03  9.73115e-03
       H -3.00111e-03  1.71301e-03 -1.93373e-02
       H  1.47741e-02 -8.37339e-03  9.61092e-03
       O  1.93031e-04 -1.40274e-02 -1.02493e-02
       H -1.75977e-02  6.47197e-03  5.42479e-03
       H  1.75776e-02  7.12935e-03  4.82788e-03
       O -1.05021e-03 -1.31447e-02 -1.00428e-02
       H  4.51261e-04 -3.69383e-03  1.92079e-02
       H  2.15659e-04  1.69388e-02 -9.64469e-03
       O  1.18950e-02 -7.12186e-03 -9.61789e-03
       H  2.88795e-03 -2.12808e-03  1.90350e-02
       H -1.44922e-02  8.87300e-03 -9.83507e-03
       O  5.69032e-05  1.45472e-02 -9.17120e-03
       H -1.76786e-02 -6.86688e-03  4.47469e-03
       H  1.77152e-02 -7.04101e-03  4.43800e-03
       O -1.18564e-02 -6.20138e-03  1.09365e-02
       H -3.26562e-03 -2.15138e-03 -1.90988e-02
       H  1.47969e-02  8.37744e-03  9.31559e-03
       O -1.25279e-02  6.82824e-03 -1.00486e-02
       H -2.74437e-03  2.10565e-03  1.92365e-02
       H  1.45547e-02 -8.73243e-03 -9.76147e-03
       O  5.87424e-07  1.49281e-02 -9.14314e-03
       H  3.19869e-05  2.90066e-03  1.90861e-02
       H -5.79176e-05 -1.70227e-02 -9.72066e-03
       O -1.17124e-02 -6.51686e-03 -1.04567e-02
       H  1.43640e-02 -1.22141e-02  5.27954e-03
       H -2.80493e-03  1.87323e-02  4.57435e-03
       O  8.59670e-04  1.31167e-02  1.00381e-02
       H -5.64104e-04  3.75616e-03 -1.92240e-02
       H -9.48956e-05 -1.70628e-02  9.56157e-03
       O -6.96480e-05  1.39908e-02  1.01896e-02
       H -1.75712e-02 -6.58817e-03 -5.47574e-03
       H  1.75576e-02 -7.09993e-03 -4.62529e-03
       O  1.26642e-02 -7.09558e-03 -1.03337e-02
       H  2.94283e-03 -1.40525e-03  1.90566e-02
       H -1.50095e-02  8.22378e-03 -9.35973e-03
       O  1.22247e-02  7.17943e-03  1.00299e-02
       H  2.90880e-03  1.80609e-03 -1.90937e-02
       H -1.44532e-02 -8.71306e-03  9.66680e-03
       O -1.22515e-02  5.84991e-03 -1.00225e-02
       H -2.79306e-03 -1.85889e-02  5.14029e-03
       H  1.44456e-02  1.21803e-02  4.61735e-03
       O -2.34499e-04  1.39603e-02  1.00290e-02
       H -1.75465e-02 -7.09933e-03 -4.62714e-03
       H  1.75978e-02 -6.39814e-03 -5.31998e-03
       O  5.26845e-04  1.43173e-02 -9.93482e-03
       H -5.47063e-04  3.37881e-03  1.90476e-02
       H  2.27328e-04 -1.69562e-02 -9.70125e-03
       O -1.16408e-02  8.33553e-03  9.29388e-03
       H -2.81536e-03  1.43734e-03 -1.91382e-02
       H  1.42272e-02 -9.02247e-03  9.82130e-03
       O  1.19211e-02  7.17055e-03 -1.03880e-02
       H -1.48900e-02  1.15792e-02  4.69950e-03
       H  3.24454e-03 -1.84864e-02  5.48895e-03
       O  1.22541e-02 -7.07346e-03  9.05717e-03
       H -1.48002e-02 -1.19825e-02 -4.44546e-03
       H  3.05435e-03  1.87582e-02 -4.48244e-03
       O -1.23842e-02  8.02481e-03  1.03087e-02
       H -3.10342e-03 -1.87971e-02 -4.95716e-03
       H  1.47888e-02  1.15092e-02 -4.73875e-03
       O -1.24398e-02  6.06217e-03  9.06248e-03
       H -2.87153e-03  1.62859e-03 -1.92460e-02
       H  1.48520e-02 -7.91792e-03  9.92099e-03
       O -1.28215e-02 -6.33476e-03  9.25704e-03
       H -2.68304e-03 -1.66952e-03 -1.90934e-02
       H  1.50981e-02  8.12838e-03  9.67214e-03
       O -1.20947e-02 -7.17362e-03  1.03256e-02
       H  1.49601e-02 -1.16317e-02 -4.79533e-03
       H -3.16174e-03  1.84567e-02 -5.38848e-03
       O  1.20334e-02  6.38665e-03  9.47823e-03
       H -1.48746e-02  1.19535e-02 -4.44893e-03
       H  2.92683e-03 -1.86651e-02 -4.91098e-03
       O -1.70791e-04 -1.43429e-02  9.95330e-03
       H -1.79648e-04 -3.34049e-03 -1.91560e-02
       H  4.71608e-04  1.69253e-02  9.71370e-03
       O -7.55874e-04 -1.45911e-02 -1.00198e-02
       H -1.75931e-02  7.01530e-03  4.76556e-03
       H  1.77497e-02  6.46988e-03  4.78165e-03
       O -1.21515e-02 -6.83901e-03  1.03039e-02
       H  1.43263e-02 -1.19283e-02 -5.37619e-03
       H -2.65320e-03  1.87612e-02 -4.73417e-03
       O -1.26601e-02  6.58734e-03  1.02114e-02
       H -2.80752e-03 -1.85242e-02 -4.73845e-03
       H  1.47703e-02  1.19981e-02 -4.74552e-03
       O -1.28635e-02  6.27816e-03  9.45365e-03
       H -2.55521e-03  1.88435e-03 -1.93488e-02
       H  1.48553e-02 -8.18286e-03  9.78571e-03
       O -1.14887e-02 -6.50487e-03  9.24746e-03
       H -3.12768e-03 -1.71856e-03 -1.91384e-02
       H  1.46865e-02  8.46687e-03  9.87426e-03
       O -1.29591e-02 -6.11598e-03  1.06286e-02
       H  1.46705e-02 -1.19587e-02 -4.95465e-03
       H -2.37989e-03  1.85707e-02 -5.33920e-03
       O  1.22461e-02  5.63941e-03  1.03472e-02
       H -1.44108e-02  1.23189e-02 -4.63508e-03
       H  2.82432e-03 -1.85392e-02 -5.13576e-03
       O -4.86546e-04 -1.49585e-02  9.06823e-03
       H  8.97004e-05 -3.13576e-03 -1.92232e-02
       H  2.08310e-04  1.67734e-02  1.00709e-02
       O -1.20269e-02 -7.97947e-03  9.49535e-03
       H -2.87503e-03 -1.34407e-03 -1.92955e-02
       H  1.45801e-02  8.94657e-03  9.78258e-03
       O -1.24724e-02  6.98334e-03 -9.94622e-03
       H -3.11680e-03  1.47235e-03  1.90847e-02
       H  1.49263e-02 -8.07630e-03 -9.70357e-03
       O -1.20445e-02 -6.68386e-03 -1.12713e-02
       H -3.12991e-03 -1.94802e-03  1.90618e-02
       H  1.48544e-02  8.59334e-03 -9.20900e-03
       O -1.17137e-02 -7.31554e-03 -9.09672e-03
       H  1.48328e-02 -1.18213e-02  4.78207e-03
       H -2.93890e-03  1.88993e-02  4.41027e-03
       O  1.17941e-02  7.26789e-03 -9.28651e-03
       H -1.47222e-02  1.18374e-02  5.00073e-03
       H  2.90494e-03 -1.88001e-02  4.54449e-03
       O  1.12734e-02 -7.85557e-03  9.87880e-03
       H -1.45751e-02 -1.17319e-02 -5.21593e-03
       H  3.35579e-03  1.87173e-02 -4.66036e-03
       O  1.28534e-02 -6.46689e-03 -9.28420e-03
       H  2.80382e-03 -1.63651e-03  1.92153e-02
       H -1.50938e-02  7.98500e-03 -9.86822e-03
       O  1.23815e-02  6.87554e-03  9.93230e-03
       H  3.15067e-03  1.67344e-03 -1.90766e-02
       H -1.47330e-02 -8.11946e-03  9.76662e-03
       O -2.44394e-04 -1.34987e-02 -1.04255e-02
       H -1.76229e-02  6.89456e-03  4.58468e-03
       H  1.78160e-02  6.35149e-03  5.24267e-03
       O -1.32533e-02  7.50635e-03 -9.42262e-03
       H -2.50874e-03  1.58177e-03  1.92309e-02
       H  1.46758e-02 -8.49739e-03 -9.80233e-03
       O -1.24671e-02  6.38229e-03  9.90573e-03
       H -3.01095e-03 -1.85604e-02 -4.69195e-03
       H  1.44196e-02  1.23219e-02 -4.65426e-03
       O -1.14294e-02 -7.95184e-03 -1.05026e-02
       H  1.49534e-02 -1.14634e-02  5.19780e-03
       H -3.16229e-03  1.85535e-02  4.82877e-03
       O  1.19038e-02  6.69281e-03 -1.00572e-02
       H -1.44305e-02  1.21335e-02  5.24223e-03
       H  2.85685e-03 -1.87976e-02  4.64157e-03
       O  1.12481e-02 -7.92411e-03  9.93209e-03
       H -1.47008e-02 -1.17877e-02 -5.23932e-03
       H  3.21458e-03  1.88988e-02 -4.46493e-03
       O  1.20028e-02 -6.67791e-03 -9.74979e-03
       H  3.29762e-03 -1.50691e-03  1.90663e-02
       H -1.47689e-02  8.05107e-03 -9.73471e-03
       O  1.25219e-02  6.96511e-03  1.02405e-02
       H  3.00572e-03  1.62558e-03 -1.89335e-02
       H -1.49192e-02 -8.17141e-03  9.37432e-03
       O -1.16029e-02  6.78904e-03 -1.00495e-02
       H -3.25925e-03 -1.84867e-02  5.20892e-03
       H  1.47337e-02  1.18591e-02  4.60465e-03
       O  1.27595e-04 -1.42403e-02 -9.85875e-03
       H  1.37554e-04 -3.47627e-03  1.90183e-02
       H -4.35636e-04  1.68950e-02 -9.78966e-03
       O  4.13910e-04  1.43093e-02 -1.00253e-02
       H -4.21272e-04  3.47691e-03  1.91826e-02
       H  2.53785e-04 -1.69857e-02 -9.70194e-03
       O  1.23140e-02 -5.74552e-03 -1.01719e-02
       H -1.47059e-02 -1.22376e-02  4.71523e-03
       H  2.86058e-03  1.85630e-02  5.04282e-03
       O -1.15913e-02 -6.71638e-03  1.09393e-02
       H -3.11013e-03 -1.87749e-03 -1.90098e-02
       H  1.48547e-02  8.59963e-03  9.15455e-03
       O -1.14909e-02  6.88267e-03 -1.09464e-02
       H -3.61455e-03  1.69836e-03  1.90645e-02
       H  1.46603e-02 -8.52028e-03 -9.40994e-03
       O -1.25315e-02 -7.16746e-03 -8.89505e-03
       H -2.83952e-03 -1.55025e-03  1.91740e-02
       H  1.46241e-02  8.35275e-03 -1.00232e-02
       O  1.38880e-03  1.35646e-02 -1.01370e-02
       H -1.79392e-02 -6.50828e-03  4.64547e-03
       H  1.73477e-02 -6.67780e-03  5.25980e-03
       O -4.15170e-04  1.41860e-02  9.86879e-03
       H -2.49587e-04  3.43824e-03 -1.90606e-02
       H  5.71214e-04 -1.68968e-02  9.79888e-03
       O  1.25408e-02 -6.55326e-03  9.48851e-03
       H -1.48869e-02 -1.18256e-02 -4.53041e-03
       H  2.54971e-03  1.88468e-02 -5.07804e-03
       O -1.18252e-02  7.45946e-03  9.75917e-03
       H -3.40640e-03 -1.87123e-02 -4.61985e-03
       H  1.46392e-02  1.20729e-02 -4.51929e-03
       O  3.64376e-04 -1.49501e-02  8.94956e-03
       H -1.17233e-05 -3.11472e-03 -1.91565e-02
       H -1.12392e-04  1.67571e-02  1.01095e-02
       O  1.18422e-02 -8.07775e-03  9.41145e-03
       H  2.99309e-03 -1.36622e-03 -1.92093e-02
       H -1.44955e-02  8.97984e-03  9.77901e-03
       O  1.26668e-02  7.03407e-03 -1.02692e-02
       H  3.08003e-03  1.31222e-03  1.90576e-02
       H -1.50128e-02 -8.13686e-03 -9.50787e-03
       O  1.20129e-02 -6.60338e-03 -1.12995e-02
       H  3.14531e-03 -1.98726e-03  1.90502e-02
       H -1.49272e-02  8.55113e-03 -9.20657e-03
       O  1.19305e-02 -7.47087e-03 -9.54964e-03
       H -1.49096e-02 -1.16950e-02  5.08855e-03
       H  2.72551e-03  1.87743e-02  4.54480e-03
       O -1.17464e-02  7.39885e-03 -9.35625e-03
       H -2.93322e-03 -1.88746e-02  4.54632e-03
       H  1.47624e-02  1.18540e-02  5.09719e-03
       O -1.21494e-02 -7.08432e-03  1.00263e-02
       H  1.49298e-02 -1.15415e-02 -4.59012e-03
       H -3.07435e-03  1.85265e-02 -5.37222e-03
       O -1.26677e-02 -6.66849e-03 -9.28356e-03
       H -2.77479e-03 -1.73849e-03  1.91428e-02
       H  1.49663e-02  8.09883e-03 -9.85853e-03
       O -2.74086e-04 -1.44303e-02  1.02514e-02
       H -2.66470e-04 -3.30742e-03 -1.89449e-02
       H  4.35365e-04  1.70260e-02  9.51183e-03
       O -1.19931e-02 -7.75047e-03  9.33066e-03
       H -2.72899e-03 -1.61677e-03 -1.91561e-02
       H  1.44992e-02  8.84373e-03  9.82277e-03
       O  1.54670e-04  1.35990e-02  9.96915e-03
       H -1.76798e-02 -6.44350e-03 -5.19226e-03
       H  1.76517e-02 -6.97025e-03 -4.54276e-03
       O  5.10654e-04 -1.37706e-02  9.22856e-03
       H -1.77392e-02  6.84275e-03 -4.49033e-03
       H  1.75628e-02  6.73728e-03 -4.97230e-03
       O  1.22801e-02  7.33269e-03  9.85898e-03
       H  2.79372e-03  1.80824e-03 -1.90101e-02
       H -1.44083e-02 -8.89650e-03  9.71738e-03
       O  1.19872e-02 -7.13307e-03  9.73479e-03
       H  2.84752e-03 -2.11389e-03 -1.91960e-02
       H -1.44349e-02  8.91859e-03  9.76295e-03
       O -7.83924e-05  1.42708e-02  8.84764e-03
       H -1.78909e-02 -6.72823e-03 -4.49436e-03
       H  1.79233e-02 -6.85070e-03 -4.17031e-03
       O  1.65220e-04 -1.39786e-02  1.01560e-02
       H -1.76075e-02  6.50477e-03 -5.30715e-03
       H  1.76216e-02  7.18118e-03 -4.84068e-03
       O -1.14486e-03 -1.32450e-02  9.98506e-03
       H  5.47187e-04 -3.75491e-03 -1.91536e-02
       H  1.59982e-04  1.69705e-02  9.72469e-03
       O -5.38213e-05  1.41448e-02  1.02530e-02
       H  4.48719e-04  3.35381e-03 -1.91756e-02
       H -4.29102e-04 -1.70875e-02  9.35176e-03
       O -1.15017e-02 -7.23267e-03  9.58758e-03
       H  1.47339e-02 -1.18717e-02 -5.10156e-03
       H -2.90078e-03  1.88886e-02 -4.45562e-03
       O -1.18435e-02 -7.03652e-03 -1.13696e-02
       H -3.22417e-03 -1.70024e-03  1.90912e-02
       H  1.48623e-02  8.58477e-03 -8.99133e-03
       O -1.25152e-02  6.74806e-03  9.96542e-03
       H -3.25761e-03  1.44947e-03 -1.92364e-02
       H  1.48398e-02 -7.99613e-03  9.83110e-03
       O  1.27475e-02 -6.94731e-03  1.01493e-02
       H  2.98095e-03 -1.55325e-03 -1.91153e-02
       H -1.50760e-02  8.04977e-03  9.61976e-03
       O  1.23985e-02  5.62516e-03 -1.04171e-02
       H  2.80805e-03  2.30411e-03  1.91590e-02
       H -1.49614e-02 -8.37250e-03 -9.43797e-03
       O  1.16717e-02  7.40657e-03  9.89412e-03
       H -1.48368e-02  1.19944e-02 -4.49229e-03
       H  3.54238e-03 -1.86604e-02 -4.61740e-03
       O  1.19058e-02 -6.76613e-03 -9.76987e-03
       H -1.43797e-02 -1.22638e-02  5.15058e-03
       H  2.86224e-03  1.88604e-02  4.33225e-03
       O -8.97658e-04  1.37860e-02  9.06785e-03
       H  2.81678e-04  3.42284e-03 -1.92252e-02
       H  4.83074e-04 -1.67906e-02  9.94269e-03
       O  9.05458e-05  1.38683e-02  1.04757e-02
       H -1.74962e-02 -6.39587e-03 -5.39112e-03
       H  1.75948e-02 -7.29009e-03 -4.64390e-03
       O -6.47417e-04 -1.39420e-02  1.00059e-02
       H -1.76380e-02  6.85008e-03 -4.53402e-03
       H  1.78917e-02  6.38846e-03 -4.65170e-03
       O  1.18840e-02  8.02444e-03  9.31230e-03
       H  3.01296e-03  1.36504e-03 -1.92335e-02
       H -1.44552e-02 -8.96149e-03  9.95517e-03
       O -1.11250e-02  7.76411e-03 -1.02788e-02
       H -3.24775e-03 -1.87037e-02  4.63310e-03
       H  1.45315e-02  1.17548e-02  5.33832e-03
       O  3.96310e-05 -1.40616e-02 -1.01106e-02
       H  2.57765e-04 -3.35021e-03  1.90864e-02
       H -2.69119e-04  1.70612e-02 -9.52192e-03
       O  1.26172e-02  5.87683e-03  1.05379e-02
       H -1.45314e-02  1.20686e-02 -4.82665e-03
       H  2.44612e-03 -1.86660e-02 -5.19587e-03
       O  1.88808e-04  1.45209e-02 -9.03415e-03
       H -1.77412e-02 -6.78530e-03  4.54296e-03
       H  1.76218e-02 -6.88714e-03  4.62338e-03
       O  5.51793e-04 -1.40490e-02 -9.56946e-03
       H -1.77228e-02  7.17219e-03  4.56747e-03
       H  1.74868e-02  6.86486e-03  5.05400e-03
       O  7.49386e-04 -1.35989e-02 -1.02543e-02
       H -3.09191e-04 -3.63533e-03  1.92326e-02
       H -6.32267e-05  1.70536e-02 -9.57289e-03
       O -2.81649e-04  1.52740e-02 -9.22617e-03
       H  2.15528e-04  2.88413e-03  1.89964e-02
       H -1.94195e-05 -1.69983e-02 -9.78237e-03
       O -1.22808e-02 -5.65259e-03 -1.01548e-02
       H  1.45008e-02 -1.23564e-02  4.70635e-03
       H -2.79795e-03  1.85535e-02  5.16635e-03
       O -1.26652e-02  6.43555e-03 -1.01787e-02
       H -2.68835e-03 -1.86436e-02  4.65705e-03
       H  1.43944e-02  1.21606e-02  4.78518e-03
       O  1.01185e-03 -1.41645e-02 -9.29631e-03
       H -1.98189e-04 -3.27631e-03  1.90712e-02
       H -5.86564e-04  1.70698e-02 -9.68882e-03
       O  1.16540e-02 -8.32604e-03 -9.28425e-03
       H  2.83780e-03 -1.39413e-03  1.92330e-02
       H -1.42897e-02  8.95897e-03 -9.85622e-03
       O  7.51883e-04  1.40026e-02 -9.69082e-03
       H -1.79299e-02 -6.23769e-03  4.62536e-03
       H  1.76269e-02 -6.94992e-03  4.35357e-03
       O  2.00973e-05 -1.40136e-02 -8.87044e-03
       H -1.77435e-02  6.65910e-03  4.43150e-03
       H  1.77798e-02  6.82536e-03  4.42802e-03
       O  1.15032e-02  7.87409e-03 -8.88898e-03
       H  2.86812e-03  1.65954e-03  1.91118e-02
       H -1.42950e-02 -8.91741e-03 -9.99775e-03
       O -1.11551e-02  7.87065e-03  1.01135e-02
       H -3.42804e-03 -1.87956e-02 -4.51004e-03
       H  1.46701e-02  1.18950e-02 -5.23609e-03
       O -1.24435e-02 -7.17443e-03 -8.67109e-03
       H  1.47889e-02 -1.21115e-02  4.43995e-03
       H -3.00972e-03  1.88598e-02  4.26924e-03
       O  1.24345e-02  7.00264e-03 -1.06015e-02
       H -1.45446e-02  1.18748e-02  5.60259e-03
       H  2.41481e-03 -1.87076e-02  4.78280e-03
       O -7.55383e-05  1.36066e-02  1.00984e-02
       H -1.76850e-02 -7.05361e-03 -4.57692e-03
       H  1.77037e-02 -6.33929e-03 -5.36906e-03
       O  6.53220e-04 -1.40356e-02  9.97016e-03
       H -1.77998e-02  6.33433e-03 -4.69033e-03
       H  1.76816e-02  6.77343e-03 -4.70852e-03
       O -1.23041e-02  7.22170e-03  9.80762e-03
       H -2.92920e-03  1.78253e-03 -1.90065e-02
       H  1.45017e-02 -8.75372e-03  9.81208e-03
       O  1.18690e-02  6.93906e-03 -9.72776e-03
       H -1.49363e-02  1.18344e-02  4.38886e-03
       H  3.42344e-03 -1.85413e-02  5.21942e-03
       O  1.20008e-02 -7.61321e-03  1.02020e-02
       H -1.46808e-02 -1.17266e-02 -4.65620e-03
       H  3.23223e-03  1.86847e-02 -4.83916e-03
       O -4.07785e-04  1.35062e-02 -1.09908e-02
       H  9.20373e-05  3.82668e-03  1.91082e-02
       H  2.19291e-04 -1.70644e-02 -9.29922e-03
       O -1.20184e-02  6.99150e-03  9.63056e-03
       H -2.87741e-03  2.28894e-03 -1.91162e-02
       H  1.44924e-02 -8.79388e-03  9.94664e-03
       O  1.09035e-02 -7.40612e-03  1.00352e-02
       H  3.37724e-03 -1.57162e-03 -1.91892e-02
       H -1.46682e-02  8.64369e-03  9.59702e-03
       O  1.21491e-02  7.34675e-03 -9.99628e-03
       H  2.98345e-03  1.77519e-03  1.91758e-02
       H -1.43879e-02 -8.80235e-03 -9.65736e-03
       O  1.43327e-04  1.36083e-02 -9.66773e-03
       H -1.48018e-04  3.34171e-03  1.93459e-02
       H -4.39518e-05 -1.70573e-02 -9.66140e-03
       O -1.30661e-03  1.40504e-02 -1.02284e-02
       H -1.74966e-02 -7.00592e-03  5.30492e-03
       H  1.78288e-02 -6.66603e-03  4.62829e-03
       O  4.30259e-04  1.42563e-02  1.01233e-02
       H -3.78380e-04  3.49044e-03 -1.92154e-02
       H  1.64480e-04 -1.70780e-02  9.67640e-03
       O -1.14201e-02  7.72055e-03 -9.12498e-03
       H -2.93202e-03  1.73427e-03  1.92389e-02
       H  1.43044e-02 -8.96122e-03 -9.89339e-03
       O  1.24022e-02  7.20369e-03  8.66019e-03
       H -1.48025e-02  1.20063e-02 -4.30995e-03
       H  3.08667e-03 -1.88402e-02 -4.46865e-03
       O  1.20157e-02 -7.62887e-03 -1.01807e-02
       H -1.46329e-02 -1.18086e-02  4.60668e-03
       H  3.21962e-03  1.88099e-02  4.77938e-03
576
# CELL(abcABC):   34.06844    44.25621    27.81677    90.00000    90.00000    90.00000  Step:           1  Bead:       0 forces{atomic_unit}  cell{atomic_unit}
       O -1.25285e-02  7.15099e-03 -9.90903e-03
       H  4.95454e-03 -2.31003e-03  8.25890e-03
       H  8.31493e-03 -5.31483e-03  2.31641e-03
       O -1.22921e-02 -8.03064e-03  1.01757e-02
       H  4.66188e-03  3.03097e-03 -8.75229e-03
       H  8.10077e-03  4.74968e-03 -2.25559e-03
       O -3.69364e-05 -1.47451e-02  1.03401e-02
       H  1.31945e-04  5.32406e-03 -8.01994e-03
       H  1.77931e-06  9.29774e-03 -2.31696e-03
       O -9.64871e-05 -1.50691e-02  9.97361e-03
       H  3.58532e-03  7.28366e-03 -4.79527e-03
       H -4.49296e-03  8.34862e-03 -5.75530e-03
       O  1.56067e-04 -1.44288e-02 -1.01862e-02
       H -4.46452e-04  5.53128e-03  8.71954e-03
       H  3.51425e-04  9.90426e-03  2.29199e-03
       O  1.30749e-02 -6.44220e-03  1.02087e-02
       H -4.95206e-03  2.54902e-03 -8.55276e-03
       H -7.91572e-03  4.45243e-03 -2.33172e-03
       O -1.18148e-02 -6.86469e-03 -1.12623e-02
       H  8.25313e-03  5.76655e-04  5.68595e-03
       H  4.62383e-03  6.86017e-03  5.49467e-03
       O -1.22191e-02  7.13148e-03  1.01029e-02
       H  8.09566e-03 -7.06141e-04 -5.40447e-03
       H  5.10342e-03 -7.53074e-03 -5.58466e-03
       O  1.28747e-02 -7.37756e-03  9.75718e-03
       H -4.37643e-03  6.97931e-03 -5.54229e-03
       H -8.93282e-03  6.32587e-04 -4.89778e-03
       O -1.08162e-04  1.43738e-02  1.02162e-02
       H  5.43252e-04 -5.57549e-03 -8.86776e-03
       H -3.80010e-04 -9.94583e-03 -2.32181e-03
       O  1.91822e-04  1.47725e-02 -9.90511e-03
       H  3.70201e-03 -7.31415e-03  5.43622e-03
       H -3.95860e-03 -7.99956e-03  4.89603e-03
       O  1.26887e-02  7.30125e-03  9.91025e-03
       H -9.16140e-03 -4.11561e-04 -5.72423e-03
       H -4.41347e-03 -6.33987e-03 -4.74813e-03
       O -1.27927e-04  1.46620e-02  1.09132e-02
       H  3.83433e-03 -7.37967e-03 -4.94949e-03
       H -4.15954e-03 -7.51014e-03 -5.73775e-03
       O  9.39245e-04  1.45834e-02  1.01370e-02
       H  2.44213e-05 -5.25981e-03 -7.90644e-03
       H -5.07333e-04 -1.02211e-02 -2.38100e-03