3
Lattice="100.0 0.0 0.0 0.0 100.0 0.0 0.0 0.0 100.0" Properties=species:S:1:pos:R:3 ipi_comment="Step:           0  Bead:       0 positions{angstrom}  cell{angstrom}" pbc="T T T"
O       -2.89770838       6.76492149      25.78733892
H       -3.22693259       6.92327461      24.89600383
H       -3.73951469       6.82619967      26.21403556
3
Lattice="100.0 0.0 0.0 0.0 100.0 0.0 0.0 0.0 100.0" Properties=species:S:1:pos:R:3 ipi_comment="Step:       16000  Bead:       0 positions{angstrom}  cell{angstrom}" pbc="T T T"
O       -2.97193861       6.71366627      25.78082366
H       -3.50273170       7.23405790      25.15462148
H       -2.28553159       7.32894043      26.05882828
3
Lattice="100.0 0.0 0.0 0.0 100.0 0.0 0.0 0.0 100.0" Properties=species:S:1:pos:R:3 ipi_comment="Step:       32000  Bead:       0 positions{angstrom}  cell{angstrom}" pbc="T T T"
O       -2.95944024       6.71046626      25.76395411
H       -2.84827294       7.34297867      26.49842980
H       -3.13836473       7.27081032      24.98277391
3
Lattice="100.0 0.0 0.0 0.0 100.0 0.0 0.0 0.0 100.0" Properties=species:S:1:pos:R:3 ipi_comment="Step:       48000  Bead:       0 positions{angstrom}  cell{angstrom}" pbc="T T T"
O       -2.91759697       6.77829320      25.81083517
H       -2.81165843       6.85322758      24.83017121
H       -3.83911662       6.68401055      25.90693518
3
Lattice="100.0 0.0 0.0 0.0 100.0 0.0 0.0 0.0 100.0" Properties=species:S:1:pos:R:3 ipi_comment="Step:       64000  Bead:       0 positions{angstrom}  cell{angstrom}" pbc="T T T"
O       -2.94742898       6.81404010      25.80625487
H       -2.92751385       5.86426864      25.84153377
H       -3.24976686       7.10559394      24.96827121
3
Lattice="100.0 0.0 0.0 0.0 100.0 0.0 0.0 0.0 100.0" Properties=species:S:1:pos:R:3 ipi_comment="Step:       80000  Bead:       0 positions{angstrom}  cell{angstrom}" pbc="T T T"
O       -2.90190969       6.78639138      25.78688951
H       -3.56532224       6.15833417      26.04344318
H       -3.33444182       7.25036945      25.07372923
3
Lattice="100.0 0.0 0.0 0.0 100.0 0.0 0.0 0.0 100.0" Properties=species:S:1:pos:R:3 ipi_comment="Step:       96000  Bead:       0 positions{angstrom}  cell{angstrom}" pbc="T T T"
O       -2.93586442       6.72720807      25.79294003
H       -3.86689309       6.86839814      25.60808324
H       -2.49394066       7.47966442      25.41305516
3
Lattice="100.0 0.0 0.0 0.0 100.0 0.0 0.0 0.0 100.0" Properties=species:S:1:pos:R:3 ipi_comment="Step:      112000  Bead:       0 positions{angstrom}  cell{angstrom}" pbc="T T T"
O       -3.01488460       6.77241894      25.79759957
H       -2.67146218       6.06658544      25.19615989
H       -2.43516132       7.56388909      25.75102215
3
Lattice="100.0 0.0 0.0 0.0 100.0 0.0 0.0 0.0 100.0" Properties=species:S:1:pos:R:3 ipi_comment="Step:      128000  Bead:       0 positions{angstrom}  cell{angstrom}" pbc="T T T"
O       -2.92346281       6.80742322      25.80803271
H       -2.75029498       6.69776069      24.88211419
H       -3.80737738       6.37712516      25.89947285
3
Lattice="100.0 0.0 0.0 0.0 100.0 0.0 0.0 0.0 100.0" Properties=species:S:1:pos:R:3 ipi_comment="Step:      144000  Bead:       0 positions{angstrom}  cell{angstrom}" pbc="T T T"
O       -2.95109400       6.72017746      25.79031559
H       -2.62515668       6.98978144      24.95684872
H       -3.49395273       7.46987117      26.10594495
3
Lattice="100.0 0.0 0.0 0.0 100.0 0.0 0.0 0.0 100.0" Properties=species:S:1:pos:R:3 ipi_comment="Step:      160000  Bead:       0 positions{angstrom}  cell{angstrom}" pbc="T T T"
O       -2.92967458       6.76322038      25.81027875
H       -3.82052874       7.09589810      25.83075066
H       -2.63855019       6.68057628      24.91518726
3
Lattice="100.0 0.0 0.0 0.0 100.0 0.0 0.0 0.0 100.0" Properties=species:S:1:pos:R:3 ipi_comment="Step:      176000  Bead:       0 positions{angstrom}  cell{angstrom}" pbc="T T T"
O       -2.91590396       6.72815910      25.74148075
H       -3.83068078       6.86352702      25.48108227
H       -2.84696578       7.46944075      26.35681906
3
Lattice="100.0 0.0 0.0 0.0 100.0 0.0 0.0 0.0 100.0" Properties=species:S:1:pos:R:3 ipi_comment="Step:      192000  Bead:       0 positions{angstrom}  cell{angstrom}" pbc="T T T"
O       -2.96221768       6.82741885      25.79995590
H       -2.20723910       6.26003184      25.54853390
H       -3.73531498       6.49748290      25.36124854
3
Lattice="100.0 0.0 0.0 0.0 100.0 0.0 0.0 0.0 100.0" Properties=species:S:1:pos:R:3 ipi_comment="Step:      208000  Bead:       0 positions{angstrom}  cell{angstrom}" pbc="T T T"
O       -2.95317387       6.75656494      25.82164263
H       -3.67933543       7.29509333      25.48486298
H       -2.40676234       6.58701633      25.08070712
3
Lattice="100.0 0.0 0.0 0.0 100.0 0.0 0.0 0.0 100.0" Properties=species:S:1:pos:R:3 ipi_comment="Step:      224000  Bead:       0 positions{angstrom}  cell{angstrom}" pbc="T T T"
O       -3.02583931       6.75126293      25.77338508
H       -2.35375140       6.92458826      26.36461575
H       -2.57899869       7.04167500      24.96689933
3
Lattice="100.0 0.0 0.0 0.0 100.0 0.0 0.0 0.0 100.0" Properties=species:S:1:pos:R:3 ipi_comment="Step:      240000  Bead:       0 positions{angstrom}  cell{angstrom}" pbc="T T T"
O       -3.01834192       6.80845056      25.75377978
H       -2.24415225       7.09341622      26.19243112
H       -2.80759658       5.96516356      25.45025974
3
Lattice="100.0 0.0 0.0 0.0 100.0 0.0 0.0 0.0 100.0" Properties=species:S:1:pos:R:3 ipi_comment="Step:      256000  Bead:       0 positions{angstrom}  cell{angstrom}" pbc="T T T"
O       -2.99798093       6.74361289      25.81050910
H       -3.30556383       7.17107495      24.98321369
H       -2.06935516       6.91660996      25.75906801
3
Lattice="100.0 0.0 0.0 0.0 100.0 0.0 0.0 0.0 100.0" Properties=species:S:1:pos:R:3 ipi_comment="Step:      272000  Bead:       0 positions{angstrom}  cell{angstrom}" pbc="T T T"
O       -2.94373730       6.73478472      25.71885671
H       -3.06965775       6.61837965      26.68049091
H       -3.16621738       7.60942611      25.51649981
3
Lattice="100.0 0.0 0.0 0.0 100.0 0.0 0.0 0.0 100.0" Properties=species:S:1:pos:R:3 ipi_comment="Step:      288000  Bead:       0 positions{angstrom}  cell{angstrom}" pbc="T T T"
O       -2.99225585       6.73725734      25.78483010
H       -2.29321279       7.13250829      26.21574247
H       -3.17257472       7.05605210      24.93411693
3
Lattice="100.0 0.0 0.0 0.0 100.0 0.0 0.0 0.0 100.0" Properties=species:S:1:pos:R:3 ipi_comment="Step:      304000  Bead:       0 positions{angstrom}  cell{angstrom}" pbc="T T T"
O       -2.97219896       6.71841275      25.77279104
H       -2.43908504       7.06106979      25.05974050
H       -3.34504599       7.42659226      26.28120316
3
Lattice="100.0 0.0 0.0 0.0 100.0 0.0 0.0 0.0 100.0" Properties=species:S:1:pos:R:3 ipi_comment="Step:      320000  Bead:       0 positions{angstrom}  cell{angstrom}" pbc="T T T"
O       -2.94111993       6.73809649      25.71418009
H       -3.26580330       7.65221366      25.61222677
H       -3.01161489       6.52302771      26.65899128
3
Lattice="100.0 0.0 0.0 0.0 100.0 0.0 0.0 0.0 100.0" Properties=species:S:1:pos:R:3 ipi_comment="Step:      336000  Bead:       0 positions{angstrom}  cell{angstrom}" pbc="T T T"
O       -3.02055524       6.75960266      25.73398582
H       -2.74341292       6.69112488      26.67889448
H       -2.27320610       7.14277005      25.27796656
3
Lattice="100.0 0.0 0.0 0.0 100.0 0.0 0.0 0.0 100.0" Properties=species:S:1:pos:R:3 ipi_comment="Step:      352000  Bead:       0 positions{angstrom}  cell{angstrom}" pbc="T T T"
O       -2.91312140       6.77699073      25.81049678
H       -2.84354541       6.62897985      24.88910494
H       -3.87826600       6.92893122      25.85337228
3
Lattice="100.0 0.0 0.0 0.0 100.0 0.0 0.0 0.0 100.0" Properties=species:S:1:pos:R:3 ipi_comment="Step:      368000  Bead:       0 positions{angstrom}  cell{angstrom}" pbc="T T T"
O       -2.97717729       6.84101427      25.75480640
H       -2.64587050       6.36687708      26.53419956
H       -3.05924443       6.17485086      25.09219683
3
Lattice="100.0 0.0 0.0 0.0 100.0 0.0 0.0 0.0 100.0" Properties=species:S:1:pos:R:3 ipi_comment="Step:      384000  Bead:       0 positions{angstrom}  cell{angstrom}" pbc="T T T"
O       -2.95079687       6.74669465      25.70458247
H       -2.73305348       6.47396512      26.59507512
H       -3.39077204       7.56480603      25.82847668
3
Lattice="100.0 0.0 0.0 0.0 100.0 0.0 0.0 0.0 100.0" Properties=species:S:1:pos:R:3 ipi_comment="Step:      400000  Bead:       0 positions{angstrom}  cell{angstrom}" pbc="T T T"
O       -2.96037437       6.72596337      25.72380660
H       -3.56222149       6.82616891      26.49771814
H       -2.40958975       7.54164962      25.62070775
3
Lattice="100.0 0.0 0.0 0.0 100.0 0.0 0.0 0.0 100.0" Properties=species:S:1:pos:R:3 ipi_comment="Step:      416000  Bead:       0 positions{angstrom}  cell{angstrom}" pbc="T T T"
O       -2.97519736       6.80528827      25.81353645
H       -3.55132751       6.82056750      25.09055758
H       -2.18521289       6.28820436      25.60367394
3
Lattice="100.0 0.0 0.0 0.0 100.0 0.0 0.0 0.0 100.0" Properties=species:S:1:pos:R:3 ipi_comment="Step:      432000  Bead:       0 positions{angstrom}  cell{angstrom}" pbc="T T T"
O       -2.97200603       6.77295376      25.69814353
H       -2.77375425       7.56738149      26.21336760
H       -3.01343900       6.05460442      26.31238313
3
Lattice="100.0 0.0 0.0 0.0 100.0 0.0 0.0 0.0 100.0" Properties=species:S:1:pos:R:3 ipi_comment="Step:      448000  Bead:       0 positions{angstrom}  cell{angstrom}" pbc="T T T"
O       -2.92514970       6.79946271      25.80955832
H       -3.29868323       7.33224389      25.04236379
H       -3.23221481       5.86899133      25.71500871
3
Lattice="100.0 0.0 0.0 0.0 100.0 0.0 0.0 0.0 100.0" Properties=species:S:1:pos:R:3 ipi_comment="Step:      464000  Bead:       0 positions{angstrom}  cell{angstrom}" pbc="T T T"
O       -2.95988412       6.83387478      25.74094334
H       -3.75032066       6.32907909      25.72057113
H       -2.22927177       6.32596690      26.12585999
3
Lattice="100.0 0.0 0.0 0.0 100.0 0.0 0.0 0.0 100.0" Properties=species:S:1:pos:R:3 ipi_comment="Step:      480000  Bead:       0 positions{angstrom}  cell{angstrom}" pbc="T T T"
O       -2.94664998       6.74082347      25.80893842
H       -3.86829482       6.87655429      25.54362775
H       -2.32135025       7.25540428      25.22358386
3
Lattice="100.0 0.0 0.0 0.0 100.0 0.0 0.0 0.0 100.0" Properties=species:S:1:pos:R:3 ipi_comment="Step:      496000  Bead:       0 positions{angstrom}  cell{angstrom}" pbc="T T T"
O       -2.98601687       6.84072438      25.75543564
H       -3.30383247       6.14087503      26.29097733
H       -2.26098040       6.40545404      25.32543174
3
Lattice="100.0 0.0 0.0 0.0 100.0 0.0 0.0 0.0 100.0" Properties=species:S:1:pos:R:3 ipi_comment="Step:      512000  Bead:       0 positions{angstrom}  cell{angstrom}" pbc="T T T"
O       -2.98559159       6.80480688      25.71075612
H       -2.06567192       6.81745048      25.95982496
H       -3.50589094       6.29896198      26.36573838
3
Lattice="100.0 0.0 0.0 0.0 100.0 0.0 0.0 0.0 100.0" Properties=species:S:1:pos:R:3 ipi_comment="Step:      528000  Bead:       0 positions{angstrom}  cell{angstrom}" pbc="T T T"
O       -3.01911981       6.78356402      25.77179584
H       -2.45536038       6.33234114      26.38172148
H       -2.58404179       7.12123842      24.97501801
3
Lattice="100.0 0.0 0.0 0.0 100.0 0.0 0.0 0.0 100.0" Properties=species:S:1:pos:R:3 ipi_comment="Step:      544000  Bead:       0 positions{angstrom}  cell{angstrom}" pbc="T T T"
O       -2.97175732       6.72169060      25.79105270
H       -2.16131444       7.18728681      25.66835189
H       -3.62982628       7.24834914      25.38274232
3
Lattice="100.0 0.0 0.0 0.0 100.0 0.0 0.0 0.0 100.0" Properties=species:S:1:pos:R:3 ipi_comment="Step:      560000  Bead:       0 positions{angstrom}  cell{angstrom}" pbc="T T T"
O       -2.95034230       6.77963251      25.82383944
H       -3.69059828       7.24863605      25.36288595
H       -2.44044215       6.26734456      25.16781625
3
Lattice="100.0 0.0 0.0 0.0 100.0 0.0 0.0 0.0 100.0" Properties=species:S:1:pos:R:3 ipi_comment="Step:      576000  Bead:       0 positions{angstrom}  cell{angstrom}" pbc="T T T"
O       -2.97530537       6.81621105      25.81449956
H       -2.29415567       6.96837840      25.10714997
H       -3.44067037       5.96702672      25.57179503
3
Lattice="100.0 0.0 0.0 0.0 100.0 0.0 0.0 0.0 100.0" Properties=species:S:1:pos:R:3 ipi_comment="Step:      592000  Bead:       0 positions{angstrom}  cell{angstrom}" pbc="T T T"
O       -2.92323711       6.74997912      25.80283756
H       -2.89811382       7.67992677      25.55653896
H       -3.66314078       6.30671321      25.30750559
3
Lattice="100.0 0.0 0.0 0.0 100.0 0.0 0.0 0.0 100.0" Properties=species:S:1:pos:R:3 ipi_comment="Step:      608000  Bead:       0 positions{angstrom}  cell{angstrom}" pbc="T T T"
O       -2.95390339       6.74724712      25.82017263
H       -3.25191277       7.68505060      25.66562512
H       -2.82260597       6.34495168      24.92327681
3
Lattice="100.0 0.0 0.0 0.0 100.0 0.0 0.0 0.0 100.0" Properties=species:S:1:pos:R:3 ipi_comment="Step:      624000  Bead:       0 positions{angstrom}  cell{angstrom}" pbc="T T T"
O       -2.96396252       6.72729456      25.72637963
H       -2.41143836       6.86204257      26.50706367
H       -3.50342160       7.48464724      25.57052297
3
Lattice="100.0 0.0 0.0 0.0 100.0 0.0 0.0 0.0 100.0" Properties=species:S:1:pos:R:3 ipi_comment="Step:      640000  Bead:       0 positions{angstrom}  cell{angstrom}" pbc="T T T"
O       -2.93529381       6.78336457      25.82269270
H       -3.10927894       7.45510212      25.17223978
H       -3.26061155       6.00164322      25.37666358
3
Lattice="100.0 0.0 0.0 0.0 100.0 0.0 0.0 0.0 100.0" Properties=species:S:1:pos:R:3 ipi_comment="Step:      656000  Bead:       0 positions{angstrom}  cell{angstrom}" pbc="T T T"
O       -2.98989605       6.72352897      25.77197881
H       -2.19556596       6.85705193      25.27133855
H       -3.30767639       7.54940542      26.08249692
3
Lattice="100.0 0.0 0.0 0.0 100.0 0.0 0.0 0.0 100.0" Properties=species:S:1:pos:R:3 ipi_comment="Step:      672000  Bead:       0 positions{angstrom}  cell{angstrom}" pbc="T T T"
O       -2.98060179       6.72538387      25.71950865
H       -3.49178588       7.48293587      25.91376295
H       -2.15897526       6.89408039      26.27288011
3
Lattice="100.0 0.0 0.0 0.0 100.0 0.0 0.0 0.0 100.0" Properties=species:S:1:pos:R:3 ipi_comment="Step:      688000  Bead:       0 positions{angstrom}  cell{angstrom}" pbc="T T T"
O       -3.00616752       6.73595761      25.77104867
H       -3.09435215       7.60300748      26.05677847
H       -2.15062904       6.60618226      25.31182018
3
Lattice="100.0 0.0 0.0 0.0 100.0 0.0 0.0 0.0 100.0" Properties=species:S:1:pos:R:3 ipi_comment="Step:      704000  Bead:       0 positions{angstrom}  cell{angstrom}" pbc="T T T"
O       -2.91933144       6.83635820      25.76634540
H       -3.76766619       6.69287658      25.31291110
H       -2.85557940       5.92275248      26.13033799
3
Lattice="100.0 0.0 0.0 0.0 100.0 0.0 0.0 0.0 100.0" Properties=species:S:1:pos:R:3 ipi_comment="Step:      720000  Bead:       0 positions{angstrom}  cell{angstrom}" pbc="T T T"
O       -2.94149260       6.72095799      25.74142178
H       -3.67784768       6.87597616      26.32722096
H       -2.59365536       7.57128789      25.51161634
3
Lattice="100.0 0.0 0.0 0.0 100.0 0.0 0.0 0.0 100.0" Properties=species:S:1:pos:R:3 ipi_comment="Step:      736000  Bead:       0 positions{angstrom}  cell{angstrom}" pbc="T T T"
O       -3.01754195       6.76589147      25.74181825
H       -2.71530478       7.60600748      26.01786930
H       -2.34914128       6.12807133      25.81467529
3
Lattice="100.0 0.0 0.0 0.0 100.0 0.0 0.0 0.0 100.0" Properties=species:S:1:pos:R:3 ipi_comment="Step:      752000  Bead:       0 positions{angstrom}  cell{angstrom}" pbc="T T T"
O       -3.01135434       6.80099157      25.79058392
H       -2.10346093       6.96635217      25.99604142
H       -3.05919489       6.21061689      25.06249326
3
Lattice="100.0 0.0 0.0 0.0 100.0 0.0 0.0 0.0 100.0" Properties=species:S:1:pos:R:3 ipi_comment="Step:      768000  Bead:       0 positions{angstrom}  cell{angstrom}" pbc="T T T"
O       -2.94901480       6.80979555      25.71140260
H       -3.55885885       7.08721417      26.36146547
H       -2.59325177       5.95001791      25.95383707
3
Lattice="100.0 0.0 0.0 0.0 100.0 0.0 0.0 0.0 100.0" Properties=species:S:1:pos:R:3 ipi_comment="Step:      784000  Bead:       0 positions{angstrom}  cell{angstrom}" pbc="T T T"
O       -3.00459820       6.75331314      25.80666812
H       -3.12739027       7.46338744      25.17986408
H       -2.14249924       6.47033477      25.62338176
3
Lattice="100.0 0.0 0.0 0.0 100.0 0.0 0.0 0.0 100.0" Properties=species:S:1:pos:R:3 ipi_comment="Step:      800000  Bead:       0 positions{angstrom}  cell{angstrom}" pbc="T T T"
O       -2.94857817       6.74128553      25.71146786
H       -3.34409462       6.42561899      26.51884986
H       -2.81494608       7.69900576      25.79541684
3
Lattice="100.0 0.0 0.0 0.0 100.0 0.0 0.0 0.0 100.0" Properties=species:S:1:pos:R:3 ipi_comment="Step:      816000  Bead:       0 positions{angstrom}  cell{angstrom}" pbc="T T T"
O       -2.94007193       6.83230237      25.79234161
H       -2.49663820       6.22854924      25.20930540
H       -3.79741386       6.45145405      25.82133111
3
Lattice="100.0 0.0 0.0 0.0 100.0 0.0 0.0 0.0 100.0" Properties=species:S:1:pos:R:3 ipi_comment="Step:      832000  Bead:       0 positions{angstrom}  cell{angstrom}" pbc="T T T"
O       -2.98828276       6.72951846      25.73093087
H       -2.37229552       7.36759733      25.30822316
H       -3.15655306       6.94379461      26.69712608
3
Lattice="100.0 0.0 0.0 0.0 100.0 0.0 0.0 0.0 100.0" Properties=species:S:1:pos:R:3 ipi_comment="Step:      848000  Bead:       0 positions{angstrom}  cell{angstrom}" pbc="T T T"
O       -3.00732258       6.76365749      25.72156626
H       -2.87279827       6.30659738      26.55377890
H       -2.35384977       7.46293913      25.60020569
3
Lattice="100.0 0.0 0.0 0.0 100.0 0.0 0.0 0.0 100.0" Properties=species:S:1:pos:R:3 ipi_comment="Step:      864000  Bead:       0 positions{angstrom}  cell{angstrom}" pbc="T T T"
O       -2.99790548       6.72574705      25.78610529
H       -3.33856095       7.58199342      25.61674096
H       -2.03755560       6.78925846      25.51287860
3
Lattice="100.0 0.0 0.0 0.0 100.0 0.0 0.0 0.0 100.0" Properties=species:S:1:pos:R:3 ipi_comment="Step:      880000  Bead:       0 positions{angstrom}  cell{angstrom}" pbc="T T T"
O       -2.92311351       6.82689676      25.78245265
H       -2.66425699       5.94337709      25.49398574
H       -3.89895943       6.82242418      25.69360867
3
Lattice="100.0 0.0 0.0 0.0 100.0 0.0 0.0 0.0 100.0" Properties=species:S:1:pos:R:3 ipi_comment="Step:      896000  Bead:       0 positions{angstrom}  cell{angstrom}" pbc="T T T"
O       -2.94272339       6.76307136      25.69961874
H       -2.81176337       6.27121237      26.49684961
H       -3.44020463       7.50762715      26.00548657
3
Lattice="100.0 0.0 0.0 0.0 100.0 0.0 0.0 0.0 100.0" Properties=species:S:1:pos:R:3 ipi_comment="Step:      912000  Bead:       0 positions{angstrom}  cell{angstrom}" pbc="T T T"
O       -3.01522889       6.78584473      25.71887084
H       -3.05051336       6.74576860      26.66703622
H       -2.05064551       6.67161149      25.52973015
3
Lattice="100.0 0.0 0.0 0.0 100.0 0.0 0.0 0.0 100.0" Properties=species:S:1:pos:R:3 ipi_comment="Step:      928000  Bead:       0 positions{angstrom}  cell{angstrom}" pbc="T T T"
O       -2.99340376       6.79223182      25.71090008
H       -3.18105743       6.01847937      26.21199722
H       -2.26651046       7.29752478      26.11128122
3
Lattice="100.0 0.0 0.0 0.0 100.0 0.0 0.0 0.0 100.0" Properties=species:S:1:pos:R:3 ipi_comment="Step:      944000  Bead:       0 positions{angstrom}  cell{angstrom}" pbc="T T T"
O       -2.97279496       6.78853390      25.82361765
H       -2.56704842       6.00235094      25.41053601
H       -3.20762294       7.37234663      25.12368650
3
Lattice="100.0 0.0 0.0 0.0 100.0 0.0 0.0 0.0 100.0" Properties=species:S:1:pos:R:3 ipi_comment="Step:      960000  Bead:       0 positions{angstrom}  cell{angstrom}" pbc="T T T"
O       -2.95523677       6.71634081      25.75606486
H       -2.33718123       7.36678404      25.49491886
H       -3.71617414       7.15376391      26.11150319
3
Lattice="100.0 0.0 0.0 0.0 100.0 0.0 0.0 0.0 100.0" Properties=species:S:1:pos:R:3 ipi_comment="Step:      976000  Bead:       0 positions{angstrom}  cell{angstrom}" pbc="T T T"
O       -2.97207844       6.83971664      25.73516560
H       -3.55743224       6.28272324      26.20196873
H       -2.22861162       6.27960064      25.73616683
3
Lattice="100.0 0.0 0.0 0.0 100.0 0.0 0.0 0.0 100.0" Properties=species:S:1:pos:R:3 ipi_comment="Step:      992000  Bead:       0 positions{angstrom}  cell{angstrom}" pbc="T T T"
O       -2.95296080       6.83812529      25.74897226
H       -2.87065329       6.40621991      26.56816624
H       -3.21882625       6.18136187      25.15082963
3
Lattice="100.0 0.0 0.0 0.0 100.0 0.0 0.0 0.0 100.0" Properties=species:S:1:pos:R:3 ipi_comment="Step:     1008000  Bead:       0 positions{angstrom}  cell{angstrom}" pbc="T T T"
O       -2.98852203       6.81837878      25.71386306
H       -2.39249077       7.00043732      26.44938581
H       -3.13256012       5.90056165      25.82686425
3
Lattice="100.0 0.0 0.0 0.0 100.0 0.0 0.0 0.0 100.0" Properties=species:S:1:pos:R:3 ipi_comment="Step:     1024000  Bead:       0 positions{angstrom}  cell{angstrom}" pbc="T T T"
O       -2.90428303       6.76671964      25.75133829
H       -3.41792576       7.31427262      25.19172779
H       -3.44416857       6.40666145      26.48971444
3
Lattice="100.0 0.0 0.0 0.0 100.0 0.0 0.0 0.0 100.0" Properties=species:S:1:pos:R:3 ipi_comment="Step:     1040000  Bead:       0 positions{angstrom}  cell{angstrom}" pbc="T T T"
O       -2.99276003       6.73384549      25.78852332
H       -3.25956374       7.65119565      25.78968360
H       -2.19822145       6.59151767      25.30155691
3
Lattice="100.0 0.0 0.0 0.0 100.0 0.0 0.0 0.0 100.0" Properties=species:S:1:pos:R:3 ipi_comment="Step:     1056000  Bead:       0 positions{angstrom}  cell{angstrom}" pbc="T T T"
O       -2.92503721       6.72629422      25.76263808
H       -3.56678218       6.97136428      26.44162908
H       -2.96590132       7.39120296      25.06046256
3
Lattice="100.0 0.0 0.0 0.0 100.0 0.0 0.0 0.0 100.0" Properties=species:S:1:pos:R:3 ipi_comment="Step:     1072000  Bead:       0 positions{angstrom}  cell{angstrom}" pbc="T T T"
O       -2.99396351       6.83591883      25.76972849
H       -3.11971015       6.00206554      26.27573766
H       -2.31897338       6.62053733      25.11381486
3
Lattice="100.0 0.0 0.0 0.0 100.0 0.0 0.0 0.0 100.0" Properties=species:S:1:pos:R:3 ipi_comment="Step:     1088000  Bead:       0 positions{angstrom}  cell{angstrom}" pbc="T T T"
O       -3.02492028       6.79391806      25.77707016
H       -2.65529716       6.48373683      24.94369723
H       -2.29203976       6.80550324      26.32932819
3
Lattice="100.0 0.0 0.0 0.0 100.0 0.0 0.0 0.0 100.0" Properties=species:S:1:pos:R:3 ipi_comment="Step:     1104000  Bead:       0 positions{angstrom}  cell{angstrom}" pbc="T T T"
O       -2.93034430       6.82774584      25.79033554
H       -2.60981149       6.15848409      25.18089703
H       -3.83863775       6.59384068      25.88157998
3
Lattice="100.0 0.0 0.0 0.0 100.0 0.0 0.0 0.0 100.0" Properties=species:S:1:pos:R:3 ipi_comment="Step:     1120000  Bead:       0 positions{angstrom}  cell{angstrom}" pbc="T T T"
O       -2.92789351       6.73820334      25.79593910
H       -3.76701695       6.54126578      25.39415717
H       -2.72033121       7.63227966      25.57937991
3
Lattice="100.0 0.0 0.0 0.0 100.0 0.0 0.0 0.0 100.0" Properties=species:S:1:pos:R:3 ipi_comment="Step:     1136000  Bead:       0 positions{angstrom}  cell{angstrom}" pbc="T T T"
O       -2.93030991       6.76191036      25.70433233
H       -2.58149191       6.78827060      26.56232364
H       -3.86750305       7.00899646      25.86519835
3
Lattice="100.0 0.0 0.0 0.0 100.0 0.0 0.0 0.0 100.0" Properties=species:S:1:pos:R:3 ipi_comment="Step:     1152000  Bead:       0 positions{angstrom}  cell{angstrom}" pbc="T T T"
O       -2.98280731       6.82048741      25.71822414
H       -3.14907102       5.87822804      25.69767912
H       -2.46668399       6.98930262      26.50935164
3
Lattice="100.0 0.0 0.0 0.0 100.0 0.0 0.0 0.0 100.0" Properties=species:S:1:pos:R:3 ipi_comment="Step:     1168000  Bead:       0 positions{angstrom}  cell{angstrom}" pbc="T T T"
O       -2.99161641       6.82800852      25.72859850
H       -2.99521733       5.89151098      25.48513398
H       -2.48071947       6.85664446      26.55723477
3
Lattice="100.0 0.0 0.0 0.0 100.0 0.0 0.0 0.0 100.0" Properties=species:S:1:pos:R:3 ipi_comment="Step:     1184000  Bead:       0 positions{angstrom}  cell{angstrom}" pbc="T T T"
O       -2.98622044       6.73853445      25.80859922
H       -2.10895682       7.15906720      25.77981623
H       -3.45262496       7.00922277      24.99277912
3
Lattice="100.0 0.0 0.0 0.0 100.0 0.0 0.0 0.0 100.0" Properties=species:S:1:pos:R:3 ipi_comment="Step:     1200000  Bead:       0 positions{angstrom}  cell{angstrom}" pbc="T T T"
O       -3.02362739       6.75146086      25.76901378
H       -2.71832587       7.42240446      25.12216713
H       -2.24953184       6.54071728      26.27872930
3
Lattice="100.0 0.0 0.0 0.0 100.0 0.0 0.0 0.0 100.0" Properties=species:S:1:pos:R:3 ipi_comment="Step:     1216000  Bead:       0 positions{angstrom}  cell{angstrom}" pbc="T T T"
O       -3.02659494       6.77287940      25.78324656
H       -2.22559425       6.48814832      26.21969215
H       -2.69516256       7.13501783      24.95530127
3
Lattice="100.0 0.0 0.0 0.0 100.0 0.0 0.0 0.0 100.0" Properties=species:S:1:pos:R:3 ipi_comment="Step:     1232000  Bead:       0 positions{angstrom}  cell{angstrom}" pbc="T T T"
O       -2.92076906       6.78398341      25.71362116
H       -2.99193408       6.03581658      26.28355407
H       -3.60849347       7.41110652      25.99653534
3
Lattice="100.0 0.0 0.0 0.0 100.0 0.0 0.0 0.0 100.0" Properties=species:S:1:pos:R:3 ipi_comment="Step:     1248000  Bead:       0 positions{angstrom}  cell{angstrom}" pbc="T T T"
O       -2.94782756       6.73231441      25.71744545
H       -2.47667063       7.52646202      25.94604453
H       -3.69428379       6.74055259      26.27334568
3
Lattice="100.0 0.0 0.0 0.0 100.0 0.0 0.0 0.0 100.0" Properties=species:S:1:pos:R:3 ipi_comment="Step:     1264000  Bead:       0 positions{angstrom}  cell{angstrom}" pbc="T T T"
O       -2.95456688       6.82602519      25.78941971
H       -3.56042011       6.74725199      25.09338917
H       -2.50356769       6.03238288      25.98362382
3
Lattice="100.0 0.0 0.0 0.0 100.0 0.0 0.0 0.0 100.0" Properties=species:S:1:pos:R:3 ipi_comment="Step:     1280000  Bead:       0 positions{angstrom}  cell{angstrom}" pbc="T T T"
O       -2.98734774       6.80082857      25.70288370
H       -2.09163826       6.57081717      25.94075471
H       -3.45205098       6.60873905      26.50975987
3
Lattice="100.0 0.0 0.0 0.0 100.0 0.0 0.0 0.0 100.0" Properties=species:S:1:pos:R:3 ipi_comment="Step:     1296000  Bead:       0 positions{angstrom}  cell{angstrom}" pbc="T T T"
O       -3.00672580       6.79817258      25.71726711
H       -2.28489187       7.28926625      26.11154751
H       -2.95122828       5.93244601      26.11067323
3
Lattice="100.0 0.0 0.0 0.0 100.0 0.0 0.0 0.0 100.0" Properties=species:S:1:pos:R:3 ipi_comment="Step:     1312000  Bead:       0 positions{angstrom}  cell{angstrom}" pbc="T T T"
O       -2.98207351       6.83875455      25.78122511
H       -3.00772032       6.43901287      24.88732414
H       -2.61968166       6.13858140      26.31975374
3
Lattice="100.0 0.0 0.0 0.0 100.0 0.0 0.0 0.0 100.0" Properties=species:S:1:pos:R:3 ipi_comment="Step:     1328000  Bead:       0 positions{angstrom}  cell{angstrom}" pbc="T T T"
O       -3.00374193       6.73614290      25.79868777
H       -2.79730612       6.67636564      24.86067444
H       -2.48617412       7.52988312      26.06923580
3
Lattice="100.0 0.0 0.0 0.0 100.0 0.0 0.0 0.0 100.0" Properties=species:S:1:pos:R:3 ipi_comment="Step:     1344000  Bead:       0 positions{angstrom}  cell{angstrom}" pbc="T T T"
O       -2.99144402       6.74847889      25.81396152
H       -2.70562693       7.67199557      25.72302040
H       -2.77304602       6.33845608      24.96446443
3
Lattice="100.0 0.0 0.0 0.0 100.0 0.0 0.0 0.0 100.0" Properties=species:S:1:pos:R:3 ipi_comment="Step:     1360000  Bead:       0 positions{angstrom}  cell{angstrom}" pbc="T T T"
O       -2.94919046       6.75990447      25.70862051
H       -2.31354463       6.94013673      26.40407237
H       -3.83577792       6.88896775      25.95538747
3
Lattice="100.0 0.0 0.0 0.0 100.0 0.0 0.0 0.0 100.0" Properties=species:S:1:pos:R:3 ipi_comment="Step:     1376000  Bead:       0 positions{angstrom}  cell{angstrom}" pbc="T T T"
O       -2.95887507       6.75831113      25.69475876
H       -3.21795647       7.57074763      26.10545317
H       -2.77765168       6.28364640      26.47402069
3
Lattice="100.0 0.0 0.0 0.0 100.0 0.0 0.0 0.0 100.0" Properties=species:S:1:pos:R:3 ipi_comment="Step:     1392000  Bead:       0 positions{angstrom}  cell{angstrom}" pbc="T T T"
O       -3.00668285       6.81760908      25.75030348