192
Lattice="12.806109670941035 0.0 0.0 -5.29177210903e-07 12.806109670941035 0.0 -5.29177210903e-07 -5.29177210903e-07 12.806109670941035" Properties=species:S:1:pos:R:3:forces:R:3 cutoff=-1.0 nneightol=1.2 energy=-30026.14591707998 pbc="T T T"
O       12.20748324      -2.34498002     -15.89399628      -1.33711308      -0.39839724      -1.37744342
H       11.46181963      -2.20701823     -16.64839131       2.04760690      -0.37019428       1.51555800
H       12.78195802      -3.14256649     -16.07767369      -0.63640488       1.09419000      -0.37716763
O       24.73776458      23.50271789      -0.35598756      -0.77715227       0.80138750       0.32652408
H       24.58758409      24.49667145      -0.17485020       0.42667013      -1.91449055      -1.25145417
H       24.62092226      23.16563201      -1.30236333       0.47678044       1.66728401       1.09564011
O        5.63049844       1.49791018       7.58512031       0.09376252      -0.27501406       0.34264027
H        6.36536683       1.73076403       8.28829098      -1.65697903      -0.81206273      -0.46532411
H        5.17665490       0.62532342       7.68931530       1.01721628       1.12044612       0.38035477
O       -2.30419104      -6.07955822      -0.54282469       2.20347753      -9.50789231      -0.88534948
H       -2.17752189      -6.64143859      -1.43759985       0.13946390       2.79619421       1.22488438
H       -2.54082321      -5.25492550      -0.45009485      -2.10253598       7.18459104      -0.69503634
O        2.50878682      17.14878129      10.20793423       0.73668309      -0.73466735      -3.43566384
H        3.24663977      16.97711620      10.78796537       0.32805388       0.19808867       1.28424603
H        3.02253852      17.10814048       9.29923113      -1.30855840       0.16957153       1.74097700
O       -2.39150528       6.07775902       4.36481768       5.78015102       3.05163856       3.05138659
H       -3.01924704       5.75422007       3.86464996      -5.54936870      -3.51426250      -3.75604915
H       -1.69375337       6.22211856       3.68870383      -0.09365042       0.26171014       0.52742605
O       23.93722530      13.64589274       6.39087318       1.07477817      -0.29322211      -0.87986275
H       24.89191391      13.60625736       6.68636573      -0.87677742      -0.12511508      -0.65670118
H       23.89616115      13.62721278       5.38660067       0.14249729      -0.26695622       1.84813035
O       -0.53249515     -15.54791439       4.44190822      -3.04268598       3.16026258       3.58505529
H       -0.15941093     -15.71206516       3.64035820       1.81351300      -1.27230583      -3.98478488
H       -1.13793738     -14.73657989       4.26575041       1.17324632      -1.83054399       0.50146921
O       16.96293425     -18.26418101      11.77382252      -4.04146744      -6.57133124      -2.62751948
H       17.37685666     -17.56101033      12.03576524       3.85674902       5.69602449       3.20332857
H       16.98743515     -19.10578445      12.30601604       0.32390721       1.17724181      -0.55927175
O        5.23295935     -14.96100394     -13.65181952      -0.28460479      -0.46484897       1.05734608
H        6.10453539     -14.75293146     -14.02409569       0.37277721      -0.19022161       0.11802706
H        5.37035492     -15.37423843     -12.75713961      -0.05850394       0.35911180      -0.84024717
O       -4.49470952       1.54290612       3.16292923      -2.61800639      -0.39368286      -2.47616371
H       -5.28932202       1.43436658       2.41109013       2.45184107       0.68390346       3.06979570
H       -4.90647818       1.57446096       4.04866605      -0.01311572       0.06444576      -0.85836832
O       -6.81458537      14.24142877      26.99269452      -1.52986363       0.39556697       1.56847133
H       -7.83737908      14.32874301      27.20785797       2.57348001      -0.41320989      -1.04115326
H       -6.55565896      13.95143966      26.12055755      -0.95779806       0.04484829      -0.52133254
O        8.10725946     -14.90591659      -7.99502097      -1.90986256       4.97012975       1.99803601
H        8.46556535     -15.75757440      -8.08355232       0.77910631      -2.47455420       0.62602790
H        7.89738778     -14.51374336      -7.06425118       0.94860894      -2.17381213      -2.46809044
O       15.94633191       7.74048673      20.24700802       1.01332363      -1.57756790       0.71334261
H       15.51214201       6.88448968      19.98871662      -0.03868381       0.62485548      -0.68019593
H       16.71845438       7.35873829      20.72617798      -0.18713731       0.50756222       0.16251436
O       -0.85594414       0.82501373       0.17461049       2.47841086       1.20696892      -1.49266489
H       -0.46463452       1.12489846       1.05273456      -0.57352595      -0.33663983      -1.40744821
H       -0.20922714       1.14661589      -0.60831037      -1.94636196      -0.91586849       2.96249838
O      -15.11605286      12.31861046      16.93716332       7.56706852      -5.56808634       8.18058543
H      -15.23464148      12.80545349      16.29670014      -1.48088409       8.06581133     -10.57752313
H      -15.90622028      12.03301352      17.15714229      -6.15434954      -2.62238241       2.00594473
O      -17.47486028       5.90281303      12.99992612       9.66642661       3.54395362      14.20303732
H      -17.89079357       5.75988227      12.35454159     -10.88194188      -3.82882683     -14.59569637
H      -16.59557943       5.98668762      12.59251258       0.79834331       0.55762110       0.77911145
O       -9.86703827      33.71594390     -10.44093096       2.27684142      -2.38236468      -0.61227250
H       -9.55937464      32.99822085      -9.75347685      -0.89453861       1.49978685      -0.57614334
H       -9.62488678      33.16501750     -11.25385299      -1.15753687       1.14204854       1.02832345
O       36.15661503      11.10531295      20.51524795      -0.36163713       1.95006435      -2.36618215
H       36.37685859      11.91712371      19.79514360      -1.21156606      -2.60155133       2.75390983
H       35.17933056      10.90570730      20.55879923       1.45990902       0.88863021      -0.19574486
O       28.79105035     -11.22162610       2.14412022       0.31018677      -0.38453487       0.24032009
H       28.46946936     -11.46213714       3.06476157       0.26739691       0.00157814      -0.88611567
H       28.63166217     -12.02518169       1.63020448      -0.02836648       0.45945788      -0.25993145
O       16.62849425       9.65409736      -7.05213302      -3.30090713       0.95690332       4.71996130
H       17.30002013       9.32060989      -7.54574952       3.14110271      -1.75015070      -2.17671748
H       16.45831086       9.04120432      -6.21979018       0.18625851       0.64271437      -2.60740316
O       -8.76423297       4.01138022      33.48162423       2.46300480       1.00447903      -0.41455612
H       -7.95718480       4.66641694      33.32742199      -2.08489820      -1.87917386       0.47406638
H       -8.30998725       3.13179244      33.51993666      -0.27840586       0.66187424      -0.16252825
O        3.70285403       0.19579504      -0.34572735       1.59259857      -1.81679887       0.43912868
H        3.28098867      -0.14761610      -1.12743851      -0.54742925       0.30213612      -0.32415763
H        4.38359289      -0.54787833      -0.22272645      -1.15593764       1.60036331      -0.18035525
O       22.31381545       2.52185750      13.08237193      -2.93193823       2.31562910      -0.60580360
H       22.18358494       3.07708610      13.86470751      -0.40255009       0.05854713      -0.13857995
H       23.04810175       2.04277220      13.28774560       3.26113728      -2.50850820       0.72215121
O       -0.85952667      32.39961559      14.62312429      -1.44546456       0.16104215      -1.68269007
H       -1.48949097      32.17736116      13.84322292       1.42442778       0.03917952       1.30685633
H       -0.67595509      33.33350753      14.39113300       0.24673345      -0.38308323       0.67553195
O        6.09934945      20.44777785       5.08126541      -1.13703489      -1.34525834      -2.73529503
H        5.35760175      19.99236795       4.54085906       1.31358748       0.83599971       1.57875061
H        6.82495724      20.47159083       4.39656831      -0.40942214       0.33489713       1.56071174
O       -9.55069614      10.66942968      10.00520644       0.65248971      -1.25400470       2.55682954
H      -10.02261637       9.84920500      10.21163847      -1.01305624      -0.22242521      -1.45544044
H       -9.01596257      10.52723976      10.85194290       0.42055656       1.39237125      -1.20273688
O       16.01284948      17.21979687      27.75814935       3.85013614      -2.37440969       3.37751061
H       15.69375563      16.33247252      27.75989564      -0.63734076      -0.93882331      -0.32160195
H       15.52076760      17.82623395      27.32575865      -3.14111299       2.78296845      -2.82354562
O        6.56391412      17.36272763      10.97121944      -0.30698163       1.44383448      -2.50243011
H        6.13618018      18.12468990      10.40785738       1.12944499      -2.42297785       1.27114369
H        6.96460711      16.68807961      10.31414010      -1.00739466       1.02358748       1.10773458
O        1.23459160     -13.05802977       9.74326372      -0.91652670      -4.54324416       0.91359049
H        0.31534887     -13.69907505       9.78485705       3.08177705       1.60113978      -0.22441935
H        1.97822317     -13.82115623       9.98880195      -2.16301349       2.61132152      -1.06414408
O        0.50619081       9.30605751       1.96081324      -4.48327572       4.76245651      -2.06516755
H        1.32039768       8.91795895       1.93006275       3.73277552      -1.35186608      -0.25526386
H        0.40900795      10.11151815       1.26500341       0.50092311      -3.27970066       2.12213293
O        1.01880901       0.50461545       7.11198296      -0.06719067      -0.70109901      -3.84626920
H        1.41166488      -0.30601048       6.52062743      -0.95902191       1.54394300       1.68218099
H        1.14755782       0.35070902       8.01581764       0.54528494      -1.05419390       2.45876762
O      -18.33662537      27.93679958     -16.15599192       2.13279787      -1.45508049       0.04719725
H      -17.46903933      27.84361147     -16.67971861      -1.25784079       0.40193148       0.91659869
H      -18.16792368      27.26871335     -15.33984191      -0.65626409       1.46645505      -1.29861851
O        1.93997424      26.61793121      -8.54764073      -0.35398707       0.58562557      -0.74926093
H        2.04859844      27.39100620      -7.95385099      -0.37622815      -0.65257198       0.58648432
H        1.86165601      25.76585007      -8.11117537       0.34391811      -0.20977074       0.48667354
O      -17.88581930      21.26244617       1.56907393      -0.71275639      -0.88865078       0.57181874
H      -17.82676313      20.32352704       1.25257833      -0.66327806       1.00354315       0.05069601
H      -18.79399323      21.50480933       1.94422353       1.35234944      -0.49759250      -1.13004662
O       10.67641482      19.19198741       7.32751684      -3.15191163      -3.77300301      -1.56928894
H       11.32312229      19.79472026       7.14960746       3.18923378       3.14020282      -0.37624769
H       10.60333545      18.81574242       6.37552704      -0.38807734       0.40077603       2.23271099
O       -9.05427500      -6.56798879       4.10531976      -1.25151588      -1.87654105       0.92868288
H       -9.13333407      -7.43361687       3.64760264       0.81727178       0.37741754      -1.19186111
H       -9.72135579      -6.87655202       4.78864629       0.66351975       1.81561616       0.05683220
O      -24.98907084       2.14948079      10.66334414       0.51556812       1.57905914      -1.00395967
H      -24.72892732       1.42534940      10.07177694       0.04474956      -0.85236736       0.39397854
H      -24.37935286       2.88940282      10.36674031      -0.42132995      -0.42989224       0.88597683
O      -10.98778269      -6.88644763      18.93745318      -4.12768685      -0.51656057      -1.99356229
H      -11.27322088      -7.87447440      18.64481818       0.37607286       3.26029396       1.31427653
H      -11.84489102      -6.17338134      18.75515163       3.12281187      -3.01780797       0.61910135
O        8.66067299       8.24071795      16.99013396       2.63911516      -3.49355997      -2.07277801
H        9.41919560       7.51770313      17.17857396      -1.92248154       2.16603197       0.35056133
H        8.65003652       8.04021271      15.99189407      -0.51422600       1.39650045       1.66951573
O      -11.04308171      -1.47379028      18.33630786       3.33271169       0.42863034       1.01660950
H      -10.16835178      -2.06727311      18.43902116      -2.43029521       1.04560642      -0.67409727
H      -11.80583774      -1.93120048      18.02552209      -1.06300765      -1.30737569      -0.51960990
O       21.40225479       3.95526627      18.97163802       3.07069045       7.36184297       1.27631675
H       20.94287605       3.28717475      18.70133430      -3.98229091      -6.64897859      -2.42235050
H       21.89909927       3.70436219      19.72613889       0.79770568      -1.02287271       1.05547946
O       -4.71297395     -17.78707484      -5.09636813       1.16712195       1.11206432       0.61989839
H       -3.78803040     -18.14342277      -5.11657741      -1.57017340      -0.18367146      -0.35351450
H       -5.37395333     -18.37424987      -5.46380762       0.59263954      -0.71819171      -0.24485655
O       27.20198410      -9.93207415      -6.72679487      -2.16785231      -1.14331866       0.95199251
H       27.90002176      -9.60387845      -6.17184673       0.61084810      -0.06917042       0.72339048
H       26.63772244     -10.65815820      -6.15782353       2.39640291       1.79608091      -1.66994253
O        7.49516018       0.91294182       5.72024690       1.53509840       1.00324490       0.13763893
H        6.72107976       0.87312123       6.25392211      -1.34832310       0.46434761       1.08384388
H        7.41271437       0.22564645       5.10274472      -0.23486729      -1.39018067      -1.23839810
O      -17.74680445      -1.87227131      23.80323763       0.29065871       0.11233515       0.68353837
H      -17.85988962      -2.24972812      22.88315721       0.99433860       0.32110367       0.87905542
H      -17.06543587      -2.33051760      24.40443586      -1.12082664      -0.13533625      -1.53418823
O        5.12672703      -6.10405913      -3.48542570      -5.48807357      -3.59073743      -0.10848723
H        4.86438213      -5.54858181      -2.80662363      -0.91443896       1.46913929       2.53612186
H        5.89455787      -5.86682898      -3.79812710       6.51908640       2.01371461      -2.63635379
O       12.51250099       8.08154145       6.49623236      -4.22993967      -4.34858585      -6.35433003
H       12.96679962       8.41391765       7.12552990       5.06066347       3.61738950       7.26588936
H       12.04317372       8.79196185       6.08754880      -0.28146445       0.77129530      -0.98172476
O        5.05910876      11.39355577      -5.07217944       1.59832185      -0.97931820      -4.50645680
H        4.60753010      11.25475259      -4.30936520      -2.47031188      -0.66611142       3.69101564
H        4.71049211      10.67181098      -5.70569452       0.71019557       1.79028050       0.94712798
O       12.22431108      27.25892357      15.66978390       0.86465209      -1.38247250      -0.20119560
H       13.08597033      26.96888154      16.09164397      -1.19026703       1.19560464      -0.15020237
H       11.91050899      28.12582168      15.90944826       0.51349992       0.16824895       0.39596292
O       -4.11449569       4.54802941       2.44184591       0.96954801      -2.50914584       3.16331191
H       -4.30155984       5.16655291       1.78970379      -1.63266666       1.25876639      -2.06964127
H       -4.86179975       4.03989758       2.82663182       0.77990335       0.89020887      -1.03771313
O        7.65724716     -15.04069803       8.32512172      -1.19837115       0.40466251      -0.02788774
H        6.68948788     -14.68694306       8.30236710       2.02418929      -1.15003953      -0.82628093
H        7.76927398     -15.93040367       7.91183432      -0.77160383       0.26005486       0.45842019
O        1.27587801       8.44619746      21.86009891       1.38930136      -0.45778666      -0.75569384
H        1.11515630       7.81425404      22.60285204       0.19923333      -0.44384665      -0.34839440
H        2.08511167       8.07630259      21.27504059      -2.11797803       1.17721610       1.75687157
O       22.30434318      22.11024098      -0.29631384       1.89328408       2.12973826       0.22155412
H       23.07286724      22.78160811      -0.07197233      -1.51631391      -1.87470528      -0.31452062
H       21.74537329      21.98186259       0.48210214      -0.14964701       0.11684126       0.26092749
O       11.34460688       5.68579746     -15.53891837      -2.49721591      -1.80379937      -2.67700810
H       11.05646989       4.58216664     -15.40297275       1.20789452       1.85733490      -0.44922283
H       11.02069751       5.98668762     -16.53144315       1.18208063      -1.09779469       3.12345465
O       -7.53077381      22.42933484       1.79837700      -2.74209303      -7.37428711      -2.67943008
H       -8.45006046      21.92635190       2.07690413       2.42802750       1.01221291      -0.90356833
H       -7.60634031      23.16229819       2.25861830      -0.12429078       6.20114364       3.66278491
O        5.92487972     -13.68515769      16.02861897      -2.74183078      -4.75576136       4.60856049
H        6.60979379     -14.29836824      16.35125831      -0.26294015       0.24324498       0.29231553
H        6.35308992     -13.18667275      15.46684444       3.08663643       4.46238807      -4.70246236
O        1.83546174      18.95004759       0.68286615       2.96522889      -0.68513759       5.78035671
H        1.13162959      19.15367498       1.27186155      -1.66679550       0.42452635      -0.70439002
H        1.79094206      18.94708420      -0.20196895      -1.77917333       0.46248921      -5.07315904
O       -6.18973292      -7.34640847       7.19342333       0.51240618      -0.20600716      -3.65561668
H       -5.39861299      -7.98835334       6.87507032      -1.82528866       1.63373624       0.64218472
H       -6.48400837      -6.92454839       6.27778801       0.90643254      -1.10785799       2.71924106
O       -3.17643383       2.29747049       8.06132688       1.22973348       3.11494944       3.15380911
H       -2.40452304       2.68507163       8.61929133      -2.35490015      -1.04593552      -0.99257996
H       -2.75091186       1.66407712       7.54204528       1.03166589      -1.92989146      -1.92544860
O       13.69769919      -6.36086883      -1.94090030      -2.05208577      -3.53620945      -1.34463099
H       12.61362675      -6.81823669      -2.15557162       3.31795355       1.99629795       0.20079039
H       14.23608408      -7.17611924      -2.28798763      -0.77239573       2.14669726       0.80755301
O       11.04615094       3.18405928      23.29099409       2.22336759      -0.56599776      -0.71960582
H       10.80045396       3.09545914      24.20826987      -0.66187938      -0.22324950       0.55721487
H       12.03729985       2.71601262      23.25252291      -1.78511258       1.06491541       0.25066827
O        7.49743564      13.69039654      24.35416402      -1.68465439      -5.69648729      -3.71838247
H        8.03682597      14.03833056      24.97250760       3.31235368       2.09464269       3.17223364
H        7.86743635      12.66998413      24.12132605      -1.39823337       3.01013065       0.75259823
O       -8.64029966       4.61000136      12.29426831       2.26956005      -1.55419142       1.11962851
H       -7.65110870       4.40375983      12.07571812      -2.04075234       0.37666164       0.08822642
H       -8.82641129       4.04658638      13.10253358       0.27727046       1.25147988      -1.28568585
