2304
Lattice="27.042369999999995 0.0 0.0 0.0 31.22584 0.0 0.0 0.0 29.44" Properties=species:S:1:pos:R:3 ipi_comment="Step:          29  Bead:       0 positions{ase}  cell{ase}" pbc="T T T"
O        1.13530371       1.31026811       1.38053690
H        1.10806460       1.33655778       0.40201066
H        0.32739283       1.76518854       1.69380894
O        3.39710731       2.59530900       2.30476705
H        2.60438112       2.12954618       1.96876753
H        4.17357517       2.10395987       1.96648966
O        1.15064119       1.29300200       5.98590838
H        1.16030429       0.38139889       5.62976494
H        1.95515859       1.73470129       5.64531331
O        3.39053670       2.60922349       5.05828510
H        3.39791577       2.62891332       4.07946811
H        3.37782167       3.54115445       5.35757553
O        3.38503297       5.19818838       1.38439755
H        3.41516087       4.27930342       1.72017525
H        4.18901400       5.64418390       1.72021141
O        1.12437184       6.51416531       2.28474953
H        0.34140082       6.02918838       1.95305902
H        1.90972156       6.02996711       1.95835973
O        3.36347131       5.20998749       5.97651037
H        3.34416651       5.21275574       6.95510403
H        2.56324504       5.68685301       5.67736344
O        1.11790648       6.53913529       5.05326751
H        1.12532756       6.55799715       4.07514051
H        1.11304605       7.47037860       5.35419805
O        1.13441829       9.11590131       1.37107206
H        1.13514369       9.09226306       0.39243695
H        1.13185528       8.18380878       1.67089443
O        3.36986323      10.42343940       2.31216525
H        2.57028860       9.97796494       1.96432340
H        3.34638155      11.34221696       1.97458108
O        1.10558948       9.14059643       5.97836900
H        1.10047818       9.14786800       6.95712983
H        0.29133617       9.60015504       5.68850640
O        3.38358321      10.38761455       5.06346307
H        3.35748332      10.39078223       4.08443658
H        2.56569226       9.94031074       5.36303085
O        3.37390970      13.01481898       1.38038575
H        3.39588532      13.02350361       0.40150539
H        4.18543002      13.47766782       1.67505405
O        1.12394205      14.30432808       2.28959329
H        1.14248824      14.29198317       3.26825390
H        1.93400418      13.84212801       1.99045969
O        3.36142622      12.98845583       5.97262985
H        3.37729859      12.96437531       6.95124540
H        3.37007534      12.05635426       5.67253010
O        1.12683171      14.31067595       5.05301098
H        0.34315494      13.82703320       5.38567733
H        1.90874222      13.83179870       5.39700825
O        1.11789353      16.90239501       1.38194214
H        1.12542115      16.88218349       0.40360257
H        1.12171591      15.96990462       1.68099542
O        3.37317646      18.20700146       2.30660567
H        3.34953310      18.19431774       3.28494963
H        2.57044038      17.73704257       2.00184596
O        1.11019412      16.91513163       5.97916462
H        0.30606391      17.35709195       5.63953462
H        1.09326029      15.99826767       5.63686338
O        3.38036512      18.20804482       5.07165764
H        2.57259201      17.77408801       5.41322610
H        3.36117658      19.12856490       5.40412991
O        3.36695836      20.80467044       1.37867547
H        2.56607343      21.24638226       1.72837434
H        3.34323024      19.88615744       1.71698032
O        1.11976390      22.10200823       2.31307421
H        1.09384042      22.10619576       3.29141173
H        0.31005025      21.64116514       2.01345679
O        3.36999884      20.81930471       5.97646037
H        3.36141338      20.83842837       6.95477863
H        2.56274831      21.28874134       5.68281706
O        1.11162760      22.13207935       5.08108068
H        0.30197958      21.69952153       5.42141116
H        1.09304322      23.05383841       5.40905024
O        1.15882770      24.70694227       1.37695830
H        1.14715631      24.67883101       0.39881410
H        1.14564591      23.77826606       1.68433341
O        3.40198558      26.03684777       2.29553050
H        2.62058872      25.55274357       1.95939218
H        4.18536628      25.55765406       1.95638605
O        1.12433298      24.74629897       5.99286309
H        0.33777680      25.22503129       5.66049268
H        1.90723799      25.21844832       5.64406437
O        3.38263941      26.04193493       5.05939107
H        3.41229614      26.02644784       4.08114494
H        4.18458861      25.57129780       5.36467155
O        3.40119679      28.64946510       1.38976591
H        3.41675782      27.72818224       1.71991650
H        4.20809224      29.07964211       1.73974928
O        1.11873346      29.92542816       2.26696765
H        1.93728163      29.49459792       1.94615883
H        1.13933207      30.84707488       1.93719386
O        3.36037684      28.64661716       5.98371520
H        2.55844949      29.07989453       5.62575532
H        3.35050720      27.72705433       5.64892483
O        1.11917534      29.92898870       5.02603539
H        1.08754057      29.91572355       4.04786775
H        0.31681343      29.46602232       5.34306371
O        5.62515135       1.26695687       1.37620101
H        5.65767010       0.35326055       1.72738334
H        6.43049383       1.71600914       1.70461794
O        7.87363180       2.58474986       2.29732802
H        8.68937423       2.15544631       1.96714782
H        7.89182846       3.50392702       1.96203776
O        5.62210061       1.28818583       5.98552354
H        5.60166492       1.31150123       6.96386415
H        4.82407864       1.76561734       5.67883777
O        7.88596822       2.57648802       5.05573525
H        7.85484414       2.56665611       4.07745956
H        7.07873866       2.11876975       5.36643527
O        7.89542239       5.19709132       1.37730853
H        7.86193076       5.21671630       0.39903653
H        7.09544118       5.66664345       1.68925517
O        5.63978098       6.50819310       2.30276752
H        5.64098602       6.52749453       3.28123350
H        5.63283033       7.44193584       2.00876950
O        7.89989844       5.19092202       5.97937159
H        7.91897595       4.27209282       5.64406308
H        8.70016270       5.63115320       5.62738063
O        5.63473345       6.50489367       5.06817281
H        4.84692552       6.03179604       5.40430042
H        6.41654504       6.02210831       5.40388920
O        5.62483445       9.11568788       1.39778865
H        4.83986035       9.59861155       1.72772062
H        6.40995305       9.59651093       1.72976238
O        7.88617377      10.42097161       2.30754312
H        7.91055446      10.41171891       3.28565995
H        8.68784438       9.94524006       2.00717490
O        5.64213344       9.12057261       5.98224764
H        4.83024161       9.55037724       5.64204980
H        5.62535880       8.19979978       5.65179264
O        7.89930084      10.42196683       5.07220325
H        7.08839254       9.98440295       5.40268184
H        7.87379264      11.34078936       5.40852340
O        7.88703190      13.01137196       1.36202981
H        7.89888823      12.09496867       1.70700851
H        8.69677685      13.44062926       1.70637967
O        5.62918957      14.30881817       2.26988882
H        6.43834849      13.87011594       1.93585530
H        5.65540771      15.23171203       1.94444499
O        7.85410214      13.03139392       5.98824733
H        7.82951756      13.04662536       6.96693584
H        7.04600635      13.48604263       5.67587247
O        5.59333399      14.30474310       5.03180303
H        5.58583217      14.28556021       4.05337175
H        4.78982774      13.83376731       5.33296249
O        5.64356960      16.92397409       1.38223492
H        4.85031278      17.38831239       1.71842331
H        6.41759470      17.40912602       1.73522369
O        7.87488517      18.23203798       2.32174041
H        7.88332957      18.25950256       3.30032107
H        7.89408031      19.16068793       2.01351278
O        5.64154614      16.89233016       5.96327805
H        4.83715151      17.34396144       5.63597743
H        5.60688456      15.97961845       5.61020591
O        7.89060696      18.22294961       5.07845592
H        7.10872252      17.73288409       5.40536329
H        8.67765293      17.74701395       5.41292390
O        7.89991992      20.83318226       1.38471138
H        7.92783774      20.83614158       0.40635570
H        8.70650694      21.29620614       1.68907604
O        5.62464854      22.11196478       2.27961370
H        4.84328793      21.62957132       1.94074568
H        6.41503036      21.63921801       1.94805896
O        7.89604315      20.83471059       5.98041224
H        7.08756229      21.26664263       5.63696090
H        7.87629478      19.91219510       5.65413949
O        5.63498590      22.11118021       5.04379013
H        5.60549416      22.09649732       4.06562608
H        4.82680204      21.65416058       5.35313113
O        5.64674241      24.71661601       1.37757887
H        5.63627902      24.68735137       0.39917924
H        5.63722516      23.78551653       1.68109396
O        7.89200741      26.02611135       2.28827937
H        7.10550873      25.54997328       1.95057833
H        8.67482345      25.53841813       1.95979461
O        5.63895643      24.72034547       5.97276300
H        5.65951493      23.80288161       5.63315795
H        6.44494665      25.16178608       5.63632615
O        7.89069799      26.03083710       5.04059593
H        7.88733162      26.05833945       4.06192293
H        7.88318973      26.96008572       5.34929752
O        7.90541205      28.62449471       1.38382749
H        7.92989480      27.70269014       1.71326289
H        8.71373412      29.06475752       1.71727177
O        5.66454295      29.91057360       2.32899754
H        5.68380918      29.89917968       3.30765222
H        6.47124890      29.44684348       2.02340974
O        7.89232237      28.61957418       5.97931897
H        7.87438541      28.62016612       6.95813907
H        7.08185494      29.08768730       5.68927325
O        5.64238368      29.91632925       5.08767504
H        4.82797186      29.48165709       5.41343249
H        5.61485660      30.83788060       5.41884506
O       10.14769081       1.31749587       1.39338070
H       10.16562673       1.32952695       0.41466011
H       10.95839625       1.77693366       1.69214423
O       12.42075805       2.60404474       2.30231943
H       12.43313983       2.58965532       3.28091106
H       13.22697492       2.13458590       2.00567318
O       10.14808563       1.30148298       5.97201518
H        9.34107662       1.74088070       5.63326281
H       10.11998598       0.38008369       5.64190193
O       12.40603716       2.59877174       5.06750992
H       11.61606365       2.11989820       5.39199364
H       13.18539072       2.11891710       5.41514943
O       12.40292913       5.18400220       1.34448655
H       12.43462571       4.26913160       1.69263411
H       13.19824203       5.63814421       1.68930940
O       10.16061280       6.48698783       2.28481752
H        9.36905821       6.01724183       1.95113150
H       10.93860211       6.00630421       1.93553275
O       12.39731622       5.20315935       5.97544053
H       12.39017017       5.17934978       6.95371402
H       12.40306989       4.27105221       5.67541050
O       10.14475574       6.50142379       5.04156923
H       10.17650320       6.48494918       4.06311016
H       10.95111440       6.04134498       5.35231364
O       10.13504362       9.10514058       1.41371464
H       10.16491433       8.18071143       1.73426136
H       10.94432154       9.54352740       1.74747562
O       12.39564983      10.39945615       2.30926987
H       13.20403651       9.96297674       1.96975837
H       12.41812048      11.31809265       1.97077866
O       10.14227878       9.09539975       5.98062069
H        9.33485684       9.54275548       5.65463978
H       10.11753522       8.17959143       5.63527474
O       12.37461392      10.41263619       5.05668231
H       12.35809810      10.39438097       4.07756874
H       11.57533024       9.93447186       5.35938156
O       12.41546958      12.99667241       1.38810782
H       12.42581948      13.01626035       0.40964590
H       13.21919823      13.47114437       1.68396713
O       10.14311912      14.27831949       2.30916820
H       10.16317300      14.26744371       3.28770321
H       10.95662615      13.82692341       2.00578591
O       12.39098733      13.00028857       5.97781358
H       11.57851565      13.43841111       5.65233913
H       12.36314693      12.08007567       5.64301633
O       10.12690099      14.29371615       5.06735980
H        9.31204638      13.86821529       5.40421762
H       10.11766916      15.21314995       5.40220439
O       10.10734837      16.88688921       1.38411492
H        9.30525456      17.33299336       1.72311557
H       10.08770784      15.96966543       1.72409469
O       12.37703436      18.18263712       2.28787728
H       12.36398555      18.17600200       3.26621481
H       11.56659599      17.71848903       1.99558458
O       10.14345795      16.90456239       5.99052867
H       10.16792342      16.92083406       6.96852970
H       10.94949626      17.36751759       5.68387161
O       12.40051374      18.20026224       5.05678076
H       13.20374759      17.75544238       5.39570029
H       12.43389849      19.12230926       5.38320343
O       12.41312399      20.79708991       1.38680680
H       12.40456589      20.78097265       0.40782998
H       12.40287028      19.86405952       1.68161330
O       10.17091935      22.11712917       2.31225778
H       10.18733000      22.10327431       3.29084065
H       10.97146632      21.64155418       2.01078679
O       12.42709439      20.80908396       5.97426560
H       11.63589398      21.28582501       5.65047454
H       13.20232302      21.29819534       5.63005981
O       10.16583354      22.11973712       5.07471252
H        9.35710117      21.67838781       5.40526207
H       10.13242077      23.04079074       5.40472396
O       10.14526679      24.71271277       1.39537641
H       10.17578256      23.79463723       1.73486517
H       10.95060795      25.15712107       1.73014722
O       12.40745716      26.01625624       2.29444301
H       13.21458864      25.58399347       1.94795067
H       12.41791528      26.93555353       1.95800460
O       10.12342504      24.73034247       5.97125329
H        9.34464106      25.21080096       5.62144271
H       10.91333883      25.19995914       5.63428795
O       12.38961399      26.01247243       5.05272860
H       12.41998017      25.99878448       4.07432623
H       13.19857463      25.55744358       5.36292885
O       12.38580520      28.61631842       1.36174165
H       11.60258096      29.09162622       1.70694004
H       13.16608615      29.10028933       1.70247466
O       10.15034574      29.93250875       2.30649569
H       10.14309152      29.95617870       3.28535188
H       10.14758790      30.86305822       2.00355046
O       12.36964254      28.61231928       5.97691330
H       12.39687368      27.69453928       5.63724394
H       13.17460588      29.05610183       5.64045726
O       10.12926902      29.92873465       5.06017130
H        9.34386488      29.45227343       5.39975758
H       10.91296317      29.44613960       5.39436526
O       14.67446845       1.30125619       1.39149187
H       14.68615967       1.30208117       0.41290779
H       15.48384487       1.76748701       1.68422349
O       16.92633193       2.60340409       2.30756865
H       16.91839365       2.62532039       3.28580980
H       16.92055920       3.53462560       2.00705909
O       14.64643614       1.28945745       5.99642809
H       14.67712111       1.30515795       6.97484303
H       15.45106030       1.75451432       5.68805757
O       16.89845373       2.59033052       5.07614212
H       17.70863679       2.15456439       5.41087157
H       16.91996786       3.51029317       5.40975359
O       16.89275268       5.21544647       1.39170681
H       16.87268318       5.22562010       0.41342941
H       16.08387358       5.67942602       1.68965446
O       14.63059601       6.51585389       2.29932214
H       14.62937667       6.54324209       3.27749857
H       14.63229741       7.44663347       1.99641923
O       16.90038391       5.20155762       5.97339614
H       16.11440551       5.68231725       5.64311796
H       17.68320260       5.68346253       5.63718287
O       14.64626544       6.52444342       5.06711393
H       13.84428697       6.07568247       5.40445332
H       14.61682805       7.44187838       5.40637210
O       14.64821340       9.12091637       1.37902879
H       14.66565497       9.12045054       0.40023917
H       15.46120883       9.58002032       1.67341578
O       16.91509161      10.41156268       2.27639374
H       16.93088760      10.40525378       3.25465642
H       17.72437017       9.94143823       1.98780492
O       14.63834838       9.13647628       5.97417207
H       13.85323543       9.61091158       5.63217057
H       15.42415284       9.61047575       5.63462214
O       16.91209627      10.41682510       5.04725461
H       17.71014402       9.96776983       5.39333086
H       16.94038290      11.33189968       5.39227210
O       16.91114878      13.02373019       1.37260715
H       16.91098828      12.99963351       0.39422034
H       16.91279088      12.09139000       1.67088052
O       14.65799056      14.31863549       2.30792728
H       15.46565547      13.88110297       1.96997321
H       14.67616965      15.23673478       1.96898031
O       16.91363184      13.01880749       5.99472432
H       16.88454314      13.02833463       6.97334820
H       16.09971798      13.46819079       5.68854115
O       14.64339453      14.29261297       5.07476876
H       14.63187358      14.29288496       4.09623092
H       13.83212365      13.82557127       5.36266512
O       14.65726799      16.91752859       1.37133436
H       14.62700656      16.93914763       0.39277466
H       13.84608454      17.36924599       1.68123164
O       16.91166674      18.19978362       2.30837952
H       16.12596561      17.73202282       1.95866367
H       17.69585263      17.72038053       1.97171503
O       14.65059447      16.89497022       5.99030017
H       14.66091379      16.87824491       6.96865768
H       14.64654961      15.96231929       5.69289272
O       16.88042363      18.23102620       5.06840618
H       16.87321017      18.20292050       4.08992361
H       16.08335959      17.74780257       5.36759110
O       16.89407542      20.80301120       1.38501793
H       16.92008488      19.88698103       1.72878859
H       17.69672098      21.24862652       1.72444083
O       14.64655377      22.13926895       2.27611726
H       13.86361634      21.64945545       1.95025395
H       15.43108235      21.65125663       1.95265803
O       16.88409849      20.82801884       5.97663704
H       16.09020689      21.27923701       5.62477082
H       16.85181665      19.90839617       5.64138060
O       14.64458042      22.14743172       5.03288886
H       14.64477569      22.17617636       4.05442401
H       14.65524519      23.07556511       5.34307193
O       14.67170349      24.74000670       1.37252151
H       14.66439300      24.70452809       0.39407612
H       14.66209699      23.80929121       1.67726094
O       16.91716121      26.03326611       2.31032226
H       16.11523124      25.58724946       1.96854832
H       16.88447708      26.95188659       1.97241090
O       14.66784846      24.74390827       5.97518104
H       14.68240665      24.74513267       6.95368130
H       15.47705738      25.21026478       5.68238860
O       16.92862401      26.03949760       5.06413290
H       16.94027606      26.02464267       4.08514785
H       17.73068525      25.56288708       5.36112027
O       16.87398178      28.62474818       1.39082689
H       16.86144954      28.64409126       0.41234302
H       16.06712685      29.09113044       1.69062166
O       14.61732544      29.92705805       2.30078970
H       14.62037192      29.94612016       3.27953096
H       14.63808111      30.85988196       2.00423060
O       16.89548367      28.63506769       5.97370459
H       16.92576357      27.71467924       5.63995185
H       17.70560962      29.07374257       5.64335773
O       14.62651019      29.91986986       5.06303455
H       15.43697164      29.48166737       5.39367365
H       14.64793951      30.83442067       5.41173120
O       19.15919896       1.26753400       1.37805765
H       18.36090131       1.71882246       1.71918984
H       19.12827537       0.35112411       1.72151782
O       21.40478767       2.59604231       2.29341865
H       20.62250858       2.11089691       1.96085483
H       22.18771662       2.12178340       1.94656080
O       19.16635240       1.30193912       5.98571137
H       19.19076390       1.31620580       6.96441027
H       19.97051884       1.76788754       5.67938261
O       21.42414867       2.60628570       5.05936155
H       21.43424066       2.58653538       4.08072936
H       22.22765449       2.13302193       5.35564596
O       21.41773877       5.21377269       1.39516741
H       20.61225604       5.65168781       1.73937854
H       21.39201398       4.29288944       1.72508715
O       19.15925037       6.49198465       2.31540920
H       19.13144904       6.48372373       3.29391920
H       18.34660590       6.04168211       2.00664124
O       21.41494323       5.20804385       5.98626103
H       21.43554628       4.28973239       5.64772471
H       22.22112195       5.64460639       5.64384762
O       19.15251711       6.51294993       5.06855332
H       19.95945000       6.07046465       5.40133241
H       19.17885778       7.43173132       5.40706945
O       19.17229102       9.09667939       1.40634507
H       19.19098227       8.17643057       1.73956369
H       19.97964425       9.53594965       1.74360598
O       21.41955508      10.40971917       2.30833223
H       22.22945881       9.97738100       1.96818094
H       21.42778456      11.32564987       1.96218883
O       19.15865886       9.10768012       5.98796595
H       19.17778196       9.12872678       6.96654517
H       19.95758113       9.58483663       5.68280002
O       21.39378464      10.43016457       5.06976930
H       21.40506831      10.44231798       4.09104714
H       21.39965476      11.36590885       5.35794810
O       21.41269414      13.00360398       1.36991638
H       20.62784302      13.47952890       1.71104254
H       22.19729475      13.48236134       1.70780746
O       19.17337142      14.31026317       2.30504782
H       19.13777123      14.30014742       3.28335752
H       18.36773056      13.85005282       1.99332148
O       21.40983682      13.03964545       5.95540875
H       21.38181694      13.03744221       6.93393362
H       20.59856112      13.50082714       5.65711854
O       19.14656678      14.32026513       5.06355479
H       18.34458643      13.87625103       5.40933040
H       19.11567372      15.24084164       5.39533877
O       19.16869556      16.90962121       1.37293720
H       19.19568579      15.99199860       1.71243018
H       19.96899809      17.35539746       1.71868285
O       21.40750814      18.21820246       2.31326898
H       21.43588285      18.19634168       3.29156926
H       22.21232964      17.75477968       2.00311700
O       19.13665953      16.91924463       5.98247097
H       19.11986379      16.93449703       6.96100331
H       18.33639249      17.39451541       5.67992600
O       21.42037821      18.17462129       5.07189476
H       20.62889377      17.70282123       5.40170639
H       22.20145516      17.69361515       5.41369425
O       21.40793370      20.81512740       1.38035836
H       20.60157632      21.25713673       1.71604582
H       21.38528282      19.89823015       1.72254746
O       19.14849812      22.10303530       2.31531146
H       19.15257796      22.13170426       3.29360663
H       19.14673319      23.03409639       2.01175275
O       21.40004773      20.77771942       5.98059689
H       21.41667116      20.76064742       6.95873177
H       21.41376990      19.84481741       5.68407431
O       19.15929903      22.10930722       5.07895827
H       18.36813804      21.63622134       5.40827440
H       19.93791585      21.61765412       5.41118335
O       19.14720472      24.69919556       1.39517132
H       18.36628932      25.18939990       1.72501238
H       19.93485614      25.18642838       1.71213511
O       21.39406840      26.03240433       2.27780306
H       22.20535989      25.59233235       1.95230168
H       21.41882415      26.95047214       1.93936293
O       19.16573573      24.71263240       5.96983922
H       19.15917950      24.70227501       6.94846644
H       19.16482344      23.77633343       5.68275417
O       21.40819165      26.02329134       5.04084872
H       21.37840145      26.01471631       4.06281821
H       20.60471257      25.55780817       5.35082916
O       21.40809962      28.63657602       1.35430349
H       20.62084530      29.10381346       1.69989631
H       22.19172932      29.10981191       1.70149581
O       19.14189606      29.90094412       2.31365584
H       19.12722723      29.88981998       3.29226810
H       18.33261205      29.43950110       2.01351289
O       21.43647339      28.62623362       5.96347037
H       21.44313751      27.70827921       5.62386430
H       22.24479447      29.05755925       5.61839405
O       19.16336180      29.92182056       5.07165126
H       19.97498976      29.48607798       5.40211725
H       19.18462203      30.84158268       5.40605877
O       23.65159679       1.28691086       1.36978086
H       23.66007879       1.26518493       0.39153383
H       23.65793066       0.35490505       1.66918059
O       25.90412192       2.58587789       2.30999794
H       25.88881475       2.57617944       3.28820189
H       25.09927286       2.11726070       2.00986533
O       23.67448208       1.27949843       5.97618574
H       23.68068639       1.29917982       6.95477319
H       24.48188702       1.75249815       5.68724581
O       25.92455740       2.59230535       5.08087923
H       26.73543567       2.15561474       5.41187546
H       25.94799675       3.51376862       5.41031765
O       25.91813455       5.19023977       1.37671515
H       25.92185810       5.15725216       0.39820138
H       25.91300242       4.26253856       1.68810185
O       23.68128155       6.52399362       2.28893195
H       22.89200265       6.04791073       1.95946730
H       24.46006055       6.03708518       1.94975737
O       25.92675339       5.20571112       5.97727655
H       25.13911062       5.67505906       5.63336035
H       26.70442223       5.69436910       5.63836915
O       23.67558889       6.49901496       5.04822150
H       23.67658053       6.53003726       4.06995716
H       23.65633612       7.42753269       5.35735670
O       23.67214286       9.12597776       1.37005671
H       23.69134104       8.20735890       1.70793626
H       24.48113496       9.56132262       1.70845323
O       25.92515187      10.40601052       2.31335739
H       26.73156646       9.96933877       1.97125739
H       25.94410196      11.32582132       1.97746306
O       23.62538525       9.09501522       5.98178333
H       23.61826669       9.10534423       6.96030201
H       22.82173025       9.57149010       5.68984776
O       25.87623583      10.40441243       5.06640488
H       25.87210901      10.38746431       4.08745782
H       25.06964946       9.93585393       5.36268622
O       25.91509431      12.99956730       1.38496353
H       25.93085751      13.01207103       0.40617099
H       26.72205855      13.46752579       1.68296322
O       23.65990160      14.30289341       2.29064050
H       23.68337285      14.29116787       3.26963971
H       24.46597613      13.83678869       1.98819454
O       25.92287039      13.00090205       5.97113290
H       25.11902889      13.44525052       5.63199160
H       25.88663284      12.08033615       5.63909356
O       23.67460663      14.29640734       5.04102830
H       22.86140870      13.86555734       5.37696580
H       23.66462680      15.21145066       5.38898158
O       23.65573206      16.90804267       1.39182916
H       23.65418067      16.88726338       0.41325369
H       23.65639821      15.97485141       1.68874306
O       25.91206276      18.20959191       2.29782006
H       25.12809777      17.72561246       1.96634155
H       26.69704735      17.72794135       1.96467164
O       23.67717848      16.88218628       5.99247217
H       23.70625720      16.90170071       6.97097119
H       24.46847079      17.36669546       5.68067211
O       25.90093248      18.23137997       5.05778940
H       25.90248852      18.25406157       4.07924379
H       25.89789524      19.16176914       5.36053759
O       25.90358168      20.80432884       1.38546429
H       25.91429555      20.78387694       0.40711743
H       25.90780173      19.87094925       1.68219211
O       23.66248760      22.12103026       2.30304472
H       22.87691852      21.64650400       1.96312825
H       24.44434407      21.63717938       1.96614958
O       25.89212852      20.84086243       5.98529904
H       25.86850416      20.84285987       6.96383357
H       25.08215953      21.30179352       5.68639717
O       23.62840006      22.13431299       5.06597969
H       23.62155130      22.11401259       4.08742421
H       22.83035699      21.65053474       5.36069598