576
Lattice="18.02824 0.0 0.0 0.0 23.419379999999997 0.0 0.0 0.0 14.72" Properties=species:S:1:pos:R:3 ipi_comment="Step:          43  Bead:       0 positions{angstrom}  cell{angstrom}" pbc="T T T"
O        1.14035665       1.30735608       1.37114765
H        0.35362378       1.78344992       1.70818036
H        1.92221767       1.78951340       1.70905238
O        3.38480633       2.61906024       2.30508973
H        3.40593233       2.59203889       3.28367243
H        4.19179208       2.15497010       2.00181142
O        1.11651397       1.30176048       5.97089839
H        1.09205288       1.31228832       6.94951122
H        0.31110930       1.76991661       5.66964994
O        3.38206954       2.59143217       5.06217841
H        2.58973788       2.12130646       5.39295271
H        4.15820181       2.10896341       5.41367180
O        3.35895036       5.21321693       1.37657482
H        2.55285161       5.65119924       1.71771646
H        3.35029996       4.29862806       1.72593647
O        1.11283311       6.51645151       2.31293992
H        1.12450118       6.54414580       3.29156817
H        1.12476036       7.44624510       2.00682078
O        3.38464798       5.20165899       5.96957333
H        3.40137117       4.27929521       5.64218867
H        4.18556372       5.63763169       5.61344327
O        1.12513409       6.51035467       5.06906420
H        1.93097618       6.06167724       5.39730357
H        1.15767461       7.42573994       5.41578934
O        1.13034899       9.11681245       1.38816391
H        1.10287692       9.11137224       0.40963234
H        0.31678049       9.57508938       1.68311884
O        3.38527073      10.41346617       2.29906683
H        2.57697214       9.97130222       1.96740762
H        3.35303496      11.33107771       1.95850309
O        1.14737495       9.10569703       5.98023083
H        1.16297156       9.12364324       6.95914825
H        1.95059790       9.57758873       5.67966154
O        3.39694615      10.41744618       5.06197741
H        3.38929882      10.43529967       4.08321610
H        3.38683422      11.35194232       5.35470054
O        3.35335331      13.00665230       1.37695288
H        3.34270102      13.02681204       0.39825862
H        2.54909227      13.47828352       1.67602611
O        1.10919301      14.31736225       2.28898577
H        1.11457463      14.34400516       3.26764083
H        1.11265531      15.25005000       1.99001555
O        3.37086409      13.02452604       5.95161356
H        2.58383504      13.50554842       5.62377724
H        4.15230006      13.51073691       5.61747579
O        1.11840955      14.34141276       5.04822203
H        0.32263385      13.88700506       5.39260305
H        1.09595478      15.25466902       5.39927071
O        1.11888629      16.91528085       1.38383240
H        0.33493508      17.39872741       1.71602941
H        1.90544779      17.39321872       1.71710757
O        3.38146500      18.21496139       2.29237688
H        3.41263427      18.20667660       3.27048129
H        4.18171206      17.74220614       1.98569114
O        1.13840767      16.93802921       5.99103415
H        1.16259675      16.95062797       6.96919696
H        1.95030289      17.39098378       5.68409343
O        3.40034611      18.21753793       5.05924409
H        4.21053075      17.78504723       5.39949051
H        3.41361687      19.13533096       5.39872265
O        3.37415752      20.82449160       1.37459087
H        3.37049211      20.80013158       0.39595728
H        3.37616545      19.89325524       1.67537674
O        1.13069190      22.13176419       2.30942689
H        1.93026641      21.68336368       1.96586804
H        1.15897303      23.04896809       1.96842951
O        3.37274051      20.81678703       5.99673417
H        3.35698313      20.83178307       6.97540953
H        2.56385518      21.27765999       5.69406352
O        1.12201686      22.11748134       5.07408629
H        1.13101274      22.13839825       4.09557035
H        1.11895924      23.05131598       5.36925035
O        5.64159963       1.31374471       1.39766716
H        5.65963888       0.39238925       1.72718642
H        6.45808528       1.74343230       1.72466965
O        7.91652722       2.59083299       2.30924199
H        8.72429518       2.16236202       1.96075457
H        7.92367391       3.51114358       1.97552222
O        5.61475411       1.28104757       6.00734749
H        5.64236034       1.29973439       6.98569311
H        6.42125148       1.74098601       5.69721304
O        7.86631204       2.58326522       5.07418969
H        7.89875494       2.57257720       4.09613695
H        8.68356105       2.13651061       5.37706836
O        7.88317688       5.19281151       1.38854803
H        7.87315167       5.20430277       0.40988053
H        7.07339830       5.66023446       1.67944164
O        5.62843858       6.50935098       2.27141447
H        4.81417156       6.07525123       1.94517239
H        5.60826012       7.42875269       1.93443993
O        7.86231977       5.18968331       5.98861012
H        7.06120041       5.62822381       5.63593752
H        7.84573612       4.26995889       5.65396603
O        5.63203232       6.49163122       5.03098839
H        5.63301896       6.52881336       4.05269335
H        5.63047429       7.41926358       5.34437720
O        5.63097102       9.11075559       1.37318847
H        5.60760221       9.13166538       0.39489041
H        4.83021821       9.58260991       1.68169545
O        7.89167309      10.39021930       2.31741482
H        7.10800499       9.91535076       1.97349723
H        8.67606675       9.91328007       1.97809983
O        5.62505770       9.08563714       5.98021056
H        4.84492327       9.57167380       5.64188422
H        6.40841678       9.57597890       5.65711372
O        7.85911207      10.43472293       5.07849045
H        7.87352587      10.44286928       4.09998308
H        7.86037296      11.36932440       5.36843856
O        7.88857038      12.99745750       1.40334519
H        7.07298558      13.43065715       1.72925539
H        7.86706398      12.07637251       1.73357031
O        5.61906339      14.28473112       2.28956922
H        5.59435035      14.29807959       3.26799409
H        4.80512662      13.82861402       1.99323111
O        7.86240040      13.04923443       5.97774998
H        7.88743336      13.04883477       6.95608211
H        8.67790458      13.50417823       5.68297403
O        5.61370796      14.34329080       5.04671606
H        6.41711851      13.89877625       5.38745784
H        5.64513376      15.26085412       5.38653171
O        5.63436654      16.89407068       1.37277605
H        5.63600946      16.87493627       0.39433452
H        5.62812257      15.96115658       1.66852846
O        7.88874374      18.19877197       2.29677626
H        7.10686994      17.71622301       1.95926410
H        8.67343476      17.72905688       1.94779935
O        5.65538095      16.93871823       5.98566734
H        5.66937571      16.95214071       6.96446749
H        6.46658290      17.39636722       5.68403863
O        7.90926651      18.22442629       5.05748692
H        7.92337784      18.19426116       4.07907077
H        8.71674924      17.76337773       5.36320155
O        7.88622268      20.81391578       1.39245928
H        7.07726221      21.25128446       1.72894256
H        7.86257656      19.89328746       1.72337957
O        5.63319535      22.11812701       2.30159423
H        5.59837269      22.10566255       3.27997285
H        4.82515316      21.66216208       1.98976167
O        7.88834890      20.82728395       5.97063155
H        7.07725017      21.26013862       5.63455136
H        7.87751274      19.90978493       5.62942009
O        5.61517881      22.10479122       5.05927128
H        4.81012565      21.66705871       5.40497411
H        5.59935131      23.02025889       5.40534053
O       10.17713221       1.30675281       1.36166236
H       10.16892429       1.27215712       0.38335819
H       10.15210774       0.37855165       1.67257055
O       12.42263295       2.59060641       2.29107982
H       11.64023501       2.10994737       1.94989084
H       13.20854985       2.12131174       1.94434752
O       10.14898692       1.32478769       5.96708202
H       10.17335625       0.40304985       5.63834755
H       10.95347926       1.76444441       5.62314311
O       12.40087191       2.61956860       5.04427601
H       12.43363922       2.59613849       4.06586921
H       13.19945895       2.14852201       5.35907177
O       12.40667476       5.19901209       1.39528393
H       11.59398298       5.62899906       1.73245007
H       12.39231524       4.27830677       1.72787812
O       10.14307198       6.47793348       2.30666312
H       10.11174087       6.48360819       3.28483258
H        9.33122805       6.02046765       2.00625197
O       12.39099995       5.22353615       5.96103055
H       11.57555360       5.65691616       5.63600386
H       12.37732637       4.30655377       5.61828891
O       10.11316183       6.50480194       5.07180167
H        9.30979595       6.06218860       5.41350134
H       10.08969834       7.42382685       5.40794161
O       10.14209284       9.08408615       1.37501740
H       10.13387237       9.06082785       0.39633062
H       10.14256046       8.15357506       1.67795572
O       12.38339462      10.40794832       2.28679754
H       11.60486928       9.92433973       1.94238130
H       13.17063697       9.93340921       1.94991405
O       10.11560444       9.11496242       5.98335066
H       10.10995511       9.12560002       6.96189321
H        9.31089453       9.59055494       5.69383767
O       12.37810494      10.42324882       5.04610110
H       12.35524993      10.39728796       4.06764287
H       11.57471975       9.95885692       5.35598025
O       12.38710697      13.02400044       1.39491004
H       11.58204296      13.45888206       1.74404059
H       12.36744160      12.10202026       1.72328254
O       10.13200252      14.30839896       2.31507042
H       10.11112408      14.31215770       3.29368762
H        9.32305392      13.84128527       2.02133616
O       12.40608244      13.02466888       5.97306119
H       12.41074443      12.11037083       5.62385356
H       13.21915689      13.45348687       5.63649246
O       10.13422478      14.32574477       5.07763631
H       10.94520911      13.88531625       5.40314980
H       10.16513147      15.24540349       5.41258597
O       10.14682550      16.90664986       1.36454469
H       10.15522312      16.87818458       0.38633506
H       10.14767789      15.97846463       1.67417406
O       12.38709725      18.23307070       2.30714724
H       11.58825899      17.78462808       1.96349058
H       12.36051701      19.15023045       1.96544764
O       10.16216617      16.92553239       5.98895007
H       10.17504781      16.94332844       6.96776358
H       10.96927992      17.39191852       5.69011020
O       12.41541660      18.22455399       5.06898291
H       12.41917746      18.21376769       4.09031275
H       13.21987433      17.74629755       5.35691474
O       12.38684673      20.83102196       1.37781460
H       12.36966913      20.85257170       0.39933817
H       11.58210199      21.29862033       1.68115720
O       10.13145567      22.13281039       2.29298945
H       10.12238285      22.12239005       3.27152665
H        9.32487726      21.65863773       2.00354598
O       12.39413056      20.82259884       5.99102645
H       12.42255720      19.90285058       5.65642713
H       13.19756569      21.26276189       5.64532306
O       10.14737674      22.13524238       5.06246515
H        9.35796412      21.66437308       5.39870695
H       10.92629364      21.65017919       5.40302775
O       14.66923932       1.28717481       1.35650789
H       14.69557968       1.31167878       0.37815055
H       15.47060372       1.75546447       1.66703394
O       16.91596012       2.60106566       2.29074346
H       16.90004289       2.62199214       3.26907831
H       16.90646282       3.53490995       1.99508248
O       14.63468082       1.29632634       5.97360115
H       14.63445445       1.26940545       6.95236858
H       14.64632330       0.36551990       5.67144524
O       16.88874050       2.60401573       5.05815661
H       16.08325309       2.16032708       5.39326306
H       16.86199634       3.52342160       5.39266799
O       16.90192846       5.20658294       1.39421141
H       16.11471409       5.68193918       1.73079140
H       17.68257085       5.69326834       1.73022927
O       14.65290800       6.51212497       2.30024691
H       14.62713974       6.51315393       3.27859060
H       13.84729260       6.04087158       2.00335101
O       16.89206395       5.20950187       5.97363907
H       16.11108701       5.69756647       5.64192285
H       17.67972653       5.68074537       5.63330381
O       14.64671023       6.53258743       5.06391764
H       13.83985791       6.08816252       5.39513256
H       14.61682786       7.45148143       5.39983120
O       14.63977550       9.10676811       1.36474739
H       14.64979340       9.07490786       0.38653338
H       14.64622392       8.17814028       1.67465522
O       16.89506120      10.39990934       2.29355150
H       16.08873927       9.96020363       1.95451208
H       16.87384532      11.31975186       1.95908044
O       14.63087524       9.13087363       5.99040674
H       13.85095864       9.61132197       5.64594808
H       15.42215277       9.59715389       5.65246476
O       16.90916036      10.39176267       5.05731261
H       16.92808258      10.38106984       4.07888077
H       17.71573823       9.92677986       5.35911268
O       16.90151466      12.99753454       1.36499023
H       16.11884336      13.48090769       1.70029939
H       17.68550177      13.47578023       1.70498180
O       14.66047975      14.30777215       2.28729320
H       13.84787823      13.86971641       1.96129136
H       14.63014211      15.23041476       1.96156152
O       16.92358773      12.99849863       5.97533352
H       16.90174967      12.97440931       6.95359722
H       16.92765172      12.06748752       5.67323834
O       14.67653660      14.29666202       5.04746311
H       14.69506377      14.28748778       4.06898092
H       15.48113405      13.82828626       5.34981985
O       14.63571991      16.91491179       1.39320591
H       13.85342288      17.39989194       1.72635187
H       15.42275837      17.39121061       1.72874535
O       16.89236390      18.21305347       2.30249820
H       16.89776331      18.23381461       3.28146946
H       16.89813849      19.14662181       2.00648977
O       14.65167717      16.89769801       5.97459609
H       14.67959667      15.97859496       5.63862321
H       15.46120417      17.33832288       5.64459837
O       16.90455400      18.20689306       5.06041450
H       17.71701934      17.77711214       5.39777239
H       16.91912382      19.12379856       5.40387327
O       16.90834226      20.81323138       1.39998368
H       16.12090091      21.29327474       1.72845610
H       17.69170973      21.29852826       1.72997067
O       14.65128591      22.11527882       2.30465747
H       13.84443882      21.67534235       1.96721630
H       14.63458446      23.02978419       1.95571034
O       16.90517449      20.80262957       5.98437464
H       16.92206161      20.81376847       6.96279890
H       17.70873374      21.27579747       5.68552763
O       14.65274820      22.10380744       5.06291821
H       14.67302048      22.09812159       4.08434499
H       15.46011100      21.63939625       5.36409704
O        1.11346301       1.28998096       8.73190193
H        0.32659369       1.76255258       9.07396328
H        1.89338337       1.77749395       9.06703143
O        3.35628939       2.60785488       9.66053753
H        4.16256823       2.15798892       9.33575589
H        3.39501393       3.52372737       9.31661126
O        1.11470508       1.28009315      13.33534437
H        1.12413925       1.26156366      14.31403860
H        1.10631689       0.34840677      13.03546295
O        3.34963462       2.60989442      12.42431027
H        3.33628205       2.60360207      11.44554615
H        2.54667556       2.13282632      12.71730346
O        3.41166656       5.20282812       8.73234047
H        3.42668180       5.21719043       7.75371599
H        4.21805087       5.66875035       9.03326025
O        1.15698245       6.50875301       9.64377617
H        1.16880192       6.48664485      10.62230875
H        1.96385518       6.04191821       9.34477455
O        3.39464478       5.20925171      13.34281404
H        3.38121658       5.18470843      14.32164396
H        3.37786575       4.27838376      13.03977826
O        1.14129039       6.49598745      12.40614485
H        0.36133727       6.01613147      12.75181200
H        1.92894368       6.02837498      12.75205384
O        1.13172708       9.11293975       8.73765750
H        1.16572413       8.19266103       9.07068316
H        1.92800160       9.56259215       9.08713404
O        3.37166757      10.43132228       9.66824013
H        3.36743421      10.45609850      10.64649956
H        3.37300539      11.36078023       9.36188552
O        1.11392311       9.09087350      13.34582995
H        0.31457213       9.53379273      12.99513867
H        1.09819122       8.17397921      13.00332264
O        3.35699198      10.41692011      12.43198384
H        2.57427259       9.93361326      12.76659266
H        4.14359201       9.93632601      12.76108975
O        3.37256079      13.02619245       8.71978840
H        3.39468088      13.03561309       7.74146271
H        4.17602357      13.49714803       9.02099293
O        1.11309061      14.31384132       9.64574764
H        0.33172497      13.83171923       9.30676187
H        1.90107904      13.84553208       9.30219626
O        3.38553115      13.02046669      13.33685560
H        2.58350925      13.46002181      12.98693112
H        3.35513073      12.09756171      13.01120156
O        1.12846618      14.29622890      12.40728058
H        1.10443137      14.29461496      11.42863523
H        0.31977514      13.83238718      12.70642994
O        1.12800926      16.93051379       8.75542003
H        0.31260603      17.35789563       9.08814619
H        1.10556562      16.00642740       9.07717621
O        3.37821864      18.23406464       9.67313911
H        3.35468629      18.21494612      10.65163038
H        2.57002125      17.77228276       9.36936281
O        1.12897148      16.89145189      13.34525200
H        1.12506095      16.86885730      14.32370498
H        1.12847398      15.96170014      13.03922939
O        3.37210520      18.21280901      12.43278509
H        2.59337632      17.72847500      12.77555123
H        4.16172627      17.73542880      12.75884882
O        3.39590239      20.83564985       8.75191923
H        3.40788778      19.91799364       9.09294137
H        4.20465399      21.26926378       9.09355462
O        1.12346714      22.10701045       9.65709392
H        1.94136308      21.67956740       9.33003387
H        1.13473106      23.02578332       9.31914348
O        3.36858384      20.82693263      13.33235294
H        2.55633467      21.25681811      12.99476673
H        3.35394659      19.90800579      12.99608503
O        1.09696508      22.09636928      12.41833857
H        1.07898544      22.09418075      11.43987723
H        0.29070476      21.62936271      12.71818808
O        5.61967084       1.29626829       8.76799532
H        5.64579656       0.37774014       9.10542632
H        6.42795778       1.73525875       9.10310965
O        7.88454735       2.58386860       9.67430834
H        8.69254483       2.14974201       9.33109131
H        7.90300175       3.50308674       9.33863552
O        5.60564138       1.31561596      13.35317485
H        5.59612654       1.33720686      14.33136168
H        4.79947578       1.78081890      13.05062434
O        7.88780523       2.57392059      12.43039734
H        7.86189059       2.56526958      11.45190207
H        7.07213551       2.12805109      12.73593084
O        7.90543421       5.18777491       8.74681750
H        7.86458955       5.19943239       7.76879706
H        7.10817467       5.66165501       9.05980998
O        5.66046178       6.51098953       9.66270112
H        5.65583587       6.52535527      10.64125648
H        5.64836429       7.44465063       9.36915040
O        7.90237819       5.18513500      13.34857106
H        7.92237091       4.26654446      13.01203814
H        8.70687641       5.62529005      13.00627106
O        5.65222610       6.50312280      12.42665133
H        4.86627733       6.02742176      12.76527620
H        6.43436822       6.02069518      12.76317393
O        5.62456863       9.11307072       8.74641850
H        5.59462908       9.11265758       7.76812660
H        4.82305549       9.58521368       9.05041228
O        7.88746879      10.41803240       9.65200647
H        7.09930206       9.94584295       9.31487316
H        8.66943836       9.92938509       9.32412836
O        5.61563156       9.11055639      13.33481237
H        5.64990890       8.18881154      13.00738895
H        6.41697042       9.55659495      12.99199615
O        7.87146413      10.40120035      12.41053390
H        7.87521853      10.43957417      11.43255346
H        7.88246048      11.32719768      12.72746027
O        7.88271969      13.02756653       8.74557324
H        7.90484487      12.10513385       9.07190955
H        8.69116839      13.46300956       9.08484042
O        5.62618645      14.33373538       9.64476240
H        5.65017903      14.30528334      10.62278820
H        6.43184524      13.86755217       9.34072436
O        7.89547033      12.99450920      13.35980036
H        7.91718501      13.00485719      14.33810323
H        8.69570401      13.46981182      13.05634827
O        5.65355547      14.29572791      12.40952743
H        4.86423313      13.82584918      12.74736935
H        6.43291554      13.81867242      12.76047165
O        5.63012770      16.94138147       8.74111082
H        4.82145226      17.37670668       9.08024383
H        5.61165525      16.02156682       9.07629273
O        7.89198611      18.22766265       9.65335375
H        7.08061264      17.78881776       9.32531627
H        7.87307212      19.14268465       9.30539898
O        5.63962597      16.90144769      13.32563115
H        5.66942885      15.98462582      12.98401862
H        6.44359048      17.34793230      12.99142822
O        7.90415956      18.20949828      12.41153487
H        7.89716701      18.24362583      11.43309378
H        7.88792334      19.13753087      12.72180425
O        7.88801424      20.82176586       8.72896932
H        7.89832319      20.83864687       7.75016885
H        8.69754707      21.28870672       9.02260324
O        5.65185534      22.11293565       9.68747494
H        5.67602704      22.09986011      10.66570963
H        6.45680591      21.65123691       9.37514308
O        7.88793003      20.81231778      13.34022568
H        7.87829207      20.82031653      14.31872950
H        7.07904652      21.28515081      13.05514862
O        5.63975563      22.12732368      12.44948644
H        4.82514601      21.68918381      12.76985510
H        5.60779072      23.04860103      12.77926985
O       10.13747061       1.31413096       8.72966384
H       10.16208482       1.33079128       7.75123224
H       10.94646478       1.77449661       9.03473808
O       12.39055693       2.59883945       9.64932483
H       13.19706364       2.15256969       9.31971489
H       12.42063834       3.51518333       9.30553134
O       10.15494167       1.28012797      13.32120658
H        9.34014658       1.71702338      12.99866548
H       10.12760765       0.36292422      12.97978405
O       12.39876764       2.60650658      12.41402986
H       12.37374734       2.59867574      11.43572413
H       11.59742443       2.13097564      12.71450648
O       12.41570086       5.18993690       8.71692957
H       12.43073189       5.21821476       7.73866726
H       13.22151005       5.65184212       9.02592899
O       10.16740482       6.48645068       9.65794640
H        9.37944333       6.01231547       9.32242941
H       10.94805620       6.01047751       9.30897544
O       12.41220369       5.20656454      13.35058527
H       12.40647472       5.17869477      14.32904956
H       12.40630914       4.27643935      13.04554573
O       10.15013846       6.49313621      12.41630337
H       10.18199285       6.47537962      11.43788260
H       10.95762018       6.03684405      12.72881219
O       10.14220518       9.10157515       8.74766912
H       10.17407865       8.18139677       9.07919551
H       10.94582068       9.54596994       9.08635246
O       12.40356279      10.40547179       9.66488109
H       12.42218552      10.40344718      10.64351270
H       13.20734011       9.93199951       9.36947605
O       10.13049256       9.09719003      13.33448107
H        9.32420390       9.53631152      12.99598868
H       10.11669347       8.18206317      12.98746908
O       12.39862482      10.40744335      12.42737905
H       11.59274616       9.96142231      12.75759936
H       12.36941716      11.32286498      12.77371622
O       12.38819042      13.01211285       8.73056932
H       12.39583310      12.98343726       7.75195015
H       12.39569269      12.08314719       9.03791722
O       10.14459354      14.31325047       9.66817608
H       10.94646594      13.87181107       9.32122271
H       10.16537872      15.23185836       9.33056029
O       12.37772294      13.00201343      13.35402442
H       12.36131083      13.02251025      14.33260638
H       11.57356289      13.47168193      13.05183195
O       10.13381172      14.31165601      12.43412795
H       10.13987737      14.32702365      11.45547526
H       10.14478740      15.24768968      12.72231022
O       10.14949460      16.91859817       8.74910819
H        9.35721854      17.39109450       9.07674406
H       10.92318703      17.40680563       9.09903467
O       12.37171706      18.24984203       9.66915337
H       12.39431025      18.26909060      10.64769794
H       12.38090994      19.18205412       9.37066042
O       10.15861571      16.91445961      13.32327036
H        9.37386323      17.39524944      12.98845926
H       10.94337208      17.39913300      12.99619840
O       12.41469155      18.23969206      12.42845467
H       13.21248528      17.78738626      12.76957542
H       12.44041436      19.15562314      12.77259289
O       12.39097606      20.85301603       8.74871110
H       12.41678870      20.84977453       7.76988337
H       13.20640909      21.30457336       9.04834893
O       10.12570747      22.12968749       9.63757539
H       10.94240506      21.69950992       9.30934265
H       10.14787786      23.05157354       9.30831210
O       12.40063094      20.84589985      13.33777522
H       11.61274549      21.30329221      12.97984991
H       13.18273602      21.33016977      13.00274399
O       10.13332009      22.10342942      12.39126488
H       10.10259769      22.09362324      11.41280362
H        9.33166832      21.63702851      12.70454791
O       14.64389899       1.29278761       8.73135774
H       14.66931353       0.37613599       9.07486420
H       15.44941455       1.73531916       9.06838378
O       16.89749659       2.59298600       9.65108709
H       16.90224737       2.62908469      10.62960637
H       16.90866823       3.52123849       9.34030655
O       14.67243100       1.32394914      13.31899254
H       13.88068319       1.79314562      12.98565442
H       15.45109691       1.80917311      12.97695110
O       16.92104354       2.62199674      12.40253900
H       17.71611882       2.16293193      12.74222663
H       16.95122465       3.53445094      12.75707896
O       16.93075103       5.19518048       8.73628968
H       16.93536456       5.21462898       7.75760301
H       17.73867264       5.66406155       9.02875332
O       14.66898544       6.47372344       9.65530614
H       14.68312764       6.46498897      10.63384276
H       15.48182056       6.01555189       9.35920760
O       16.92575187       5.20039397      13.35455225
H       16.89608887       5.21744671      14.33308210
H       16.11982544       5.66335056      13.04623843
O       14.67085981       6.48639595      12.42063896
H       13.86509285       6.04816566      12.76338269
H       14.64288306       7.41037777      12.74324883
O       14.65146695       9.08075194       8.74940709
H       14.63661015       9.07191130       7.77091541
H       14.65594878       8.14668753       9.04175989
O       16.89270718      10.40444830       9.65047420
H       16.11330137       9.91386013       9.31752199
H       17.68245834       9.93278548       9.31584133
O       14.65395242       9.09210229      13.32557565
H       13.86998973       9.57709021      12.99660691
H       15.43880458       9.56986033      12.98691885
O       16.90024624      10.39949734      12.40446028
H       16.90427932      10.42759485      11.42589412
H       16.90273152      11.32918609      12.71136983
O       16.88517450      13.00538501       8.73798039
H       16.08259774      13.45206510       9.07584426
H       16.85950554      12.08802007       9.07893270
O       14.63288809      14.31497205       9.67170302
H       13.83158594      13.87316508       9.32383648
H       14.60658841      15.23417244       9.33645406
O       16.90121218      13.00019266      13.32250652
H       16.88906973      13.00960536      14.30135516
H       16.08946435      13.46378086      13.03123400
O       14.63367603      14.29498828      12.43627104
H       14.61195594      14.29419290      11.45772398