1296
Lattice="27.042369999999995 0.0 0.0 0.0 23.419379999999997 0.0 0.0 0.0 22.08" Properties=species:S:1:pos:R:3 ipi_comment="Step:          45  Bead:       0 positions{angstrom}  cell{angstrom}" pbc="T T T"
O        1.10467522       1.31272022       1.36863330
H        1.12253577       1.28144857       0.39026685
H        1.13515232       0.38369914       1.67545589
O        3.35797148       2.61048512       2.30634879
H        2.55198929       2.17362537       1.96357214
H        3.34269414       3.52850853       1.96685216
O        1.10486103       1.32671720       5.99510817
H        0.32847259       1.81300040       5.64903170
H        1.89651939       1.78826944       5.65037107
O        3.37310755       2.58642795       5.06567055
H        3.39004454       2.58773614       4.08712535
H        4.18074746       2.11664022       5.35965692
O        3.36354337       5.20960230       1.36513900
H        2.58302850       5.69240982       1.70582048
H        4.14849424       5.68540985       1.70554517
O        1.12800339       6.53454691       2.29546608
H        1.11306250       6.50800211       3.27406226
H        0.32822746       6.05737752       1.99359292
O        3.36967254       5.18077295       5.98913427
H        3.37196808       5.15584067       6.96764949
H        3.37378003       4.24965741       5.68604653
O        1.14049489       6.50059676       5.05054548
H        0.34803034       6.03933371       5.39367318
H        1.91651366       6.01089151       5.39240047
O        1.14747165       9.13115831       1.37259574
H        0.34178270       9.56894276       1.71512760
H        1.12547348       8.21276097       1.71184534
O        3.41797823      10.41836613       2.27043780
H        2.60964716       9.97546655       1.94038569
H        3.38302676      11.34029777       1.94285209
O        1.14281331       9.10772456       5.95138440
H        1.16324124       8.18787232       5.61696257
H        1.95172013       9.54343276       5.61305915
O        3.39775536      10.39671380       5.02982406
H        3.43436758      10.39009337       4.05175504
H        4.20088976       9.93549428       5.34665729
O        3.36657733      13.02669697       1.37735959
H        2.57937844      13.48963638       1.73026470
H        4.14916404      13.51004052       1.71255559
O        1.10687166      14.29064079       2.31757974
H        1.08279182      14.28354752       3.29604260
H        0.30041964      13.82524842       2.01547269
O        3.37656302      12.99564283       5.96356995
H        2.56104694      13.43153931       5.64259104
H        3.36014515      12.07873664       5.62138562
O        1.10796204      14.29847188       5.07993920
H        0.29803514      13.86853225       5.42307553
H        1.09317995      15.22135052       5.40563096
O        1.11884354      16.89151012       1.38102126
H        1.11402483      16.86575446       0.40278738
H        1.10339538      15.96262652       1.68849693
O        3.37496350      18.18967449       2.29218346
H        2.59220741      17.70401505       1.96037398
H        4.16351463      17.71572877       1.95895062
O        1.11149151      16.91423385       5.97370310
H        0.33129700      17.39789658       5.63400175
H        1.89815195      17.39256873       5.64057349
O        3.35604872      18.23062131       5.05386130
H        3.36658706      18.24787353       4.07553473
H        3.36263635      19.16351711       5.35106646
O        3.39781786      20.78391486       1.37332946
H        3.39357385      20.77150121       0.39464709
H        3.38519090      19.84980754       1.66707811
O        1.16980053      22.13151882       2.28935339
H        1.17432614      22.12767181       3.26800530
H        1.97178524      21.65119562       1.99983002
O        3.37049588      20.83416035       5.96342105
H        2.58935462      21.32367160       5.63343683
H        4.15853910      21.30944573       5.62978817
O        1.12970442      22.15343722       5.05221678
H        0.33328245      21.70134085       5.39800903
H        1.09722511      23.07080697       5.39291238
O        5.61542432       1.29745991       1.40029320
H        4.81232785       1.74138023       1.74043167
H        5.58851947       0.37561316       1.72884476
O        7.88339012       2.60006940       2.28097214
H        7.09840029       2.11458014       1.95491289
H        8.67004540       2.12865940       1.93994274
O        5.62589673       1.29080805       5.97000561
H        5.65289306       0.37325549       5.62814566
H        6.43051194       1.73443734       5.63226470
O        7.87621115       2.59179882       5.04098726
H        7.88108893       2.62270443       4.06298089
H        7.88301687       3.52054896       5.35085367
O        7.85481509       5.21138432       1.38629635
H        7.04878887       5.64405017       1.73475005
H        7.84141924       4.28789279       1.71031133
O        5.60591621       6.50921419       2.31474964
H        5.60870739       6.53401825       3.29313524
H        5.63242264       7.43977075       2.01062689
O        7.88749161       5.18806237       5.96970291
H        7.91061912       5.19683730       6.94827220
H        8.68724800       5.66562844       5.66943498
O        5.62129143       6.49471042       5.07564552
H        4.83953616       6.00886887       5.40906681
H        6.40918079       6.01323672       5.40006475
O        5.67349737       9.10353434       1.38979212
H        4.88583129       9.59287727       1.70394677
H        6.45337292       9.58445650       1.73525433
O        7.90323387      10.42386630       2.32348199
H        7.89409361      10.45638180       3.30160150
H        7.89253144      11.35210054       2.01233663
O        5.63344076       9.09769686       5.99291532
H        5.62377183       9.07586053       6.97124005
H        5.63719266       8.16528575       5.69447249
O        7.87090903      10.43869589       5.08692103
H        7.06897174       9.98656166       5.41911478
H        7.83888011      11.35663426       5.42480499
O        7.86757559      13.01842475       1.38479017
H        7.88862368      13.02399388       0.40643137
H        8.68108446      13.47559666       1.68132422
O        5.61599744      14.32858326       2.30042861
H        6.41955638      13.88015798       1.96632287
H        5.65276458      15.24607013       1.96021198
O        7.86658984      13.04782056       5.99294396
H        7.08724311      13.52704875       5.64541078
H        8.65758815      13.51214924       5.65126597
O        5.60814305      14.33589563       5.05588695
H        5.59173253      14.32090542       4.07704800
H        4.81070277      13.85187416       5.35326194
O        5.65173378      16.92163761       1.37279226
H        5.67668832      16.93426627       0.39449657
H        6.45187853      17.39130411       1.68402115
O        7.90188093      18.21781280       2.32044474
H        7.91027614      18.19778502       3.29889826
H        8.70115719      17.73893490       2.02011443
O        5.60213392      16.92807644       5.99524779
H        4.79937674      17.36957519       5.65097914
H        5.58082952      16.01060694       5.65379239
O        7.87320389      18.20815401       5.08334868
H        7.05950854      17.77511773       5.41285149
H        7.85316224      19.12893098       5.41524027
O        7.88839857      20.80847923       1.38214976
H        7.91450059      19.89471282       1.73285712
H        8.69085100      21.25579149       1.72058522
O        5.62764255      22.10655935       2.28781184
H        4.84965870      21.61599674       1.95085987
H        6.41686936      21.63801692       1.94729030
O        7.86627360      20.81715857       5.98394830
H        7.89504977      20.83726336       6.96212854
H        8.67681102      21.27200888       5.67557210
O        5.62956817      22.12248515       5.04366871
H        5.65369632      22.09581354       4.06515507
H        6.42756177      21.64912773       5.35687553
O       10.14846659       1.29559596       1.36364333
H       10.18048429       1.31293917       0.38567683
H       10.95575019       1.75000782       1.67889721
O       12.41166197       2.56280233       2.31863959
H       12.42415474       2.54272367       3.29716107
H       13.22830857       2.11690171       2.01593798
O       10.11275378       1.28863028       5.99675449
H        9.31204673       1.72942340       5.64642128
H       10.09412805       0.36980783       5.65993523
O       12.38656954       2.56525387       5.07891822
H       11.57536883       2.13279066       5.41508365
H       12.36758154       3.48533188       5.41289223
O       12.38134221       5.16153515       1.39533795
H       11.56887876       5.60052112       1.71951964
H       12.36811724       4.24702630       1.74417343
O       10.12852168       6.48493371       2.29346171
H        9.31201761       6.05778518       1.96324822
H       10.11836658       7.40217620       1.95214585
O       12.37859553       5.17559869       5.98811062
H       12.36003494       5.20117239       6.96633280
H       11.58165278       5.65324104       5.68054522
O       10.14192669       6.50947105       5.06210019
H       10.13915778       6.52370647       4.08365873
H       10.13531814       7.44346040       5.35438767
O       10.13351312       9.09375834       1.37891219
H        9.35563767       9.57870734       1.72209317
H       10.92045739       9.56982834       1.71520070
O       12.38016876      10.40077648       2.29798837
H       12.38296216      10.43014342       3.27652766
H       12.39283810      11.33066781       1.99288905
O       10.12789595       9.12072063       5.97039020
H       10.10953626       9.12339531       6.94880535
H        9.32030909       9.59132178       5.67923760
O       12.39106631      10.40717591       5.05708464
H       11.58034320       9.97299398       5.39305397
H       12.37664242      11.32291267       5.40234683
O       12.40806002      13.00895896       1.38772870
H       12.42648431      13.02538684       0.40936465
H       13.21543387      13.47286448       1.68997608
O       10.13975587      14.28965417       2.28801195
H       10.15794039      14.28556739       3.26675039
H       10.95206045      13.82941793       1.99303714
O       12.39511545      13.01232231       5.98081756
H       12.42562036      13.02927912       6.95902881
H       13.20315374      13.47302930       5.67472999
O       10.14048626      14.31225872       5.05085803
H       10.94307505      13.86991115       5.39530406
H       10.16700552      15.23171018       5.38585141
O       10.12880362      16.89381196       1.38317341
H       10.12448781      16.87998385       0.40438143
H       10.13720745      15.96020718       1.67785153
O       12.37084175      18.20309428       2.30687693
H       11.56717095      17.76196341       1.96342427
H       12.35266855      19.12108916       1.96828238
O       10.13731190      16.91389670       5.97747048
H       10.12275803      16.91575562       6.95626462
H        9.32457442      17.37661336       5.68775992
O       12.40057063      18.20164193       5.06827505
H       12.37520705      18.18650554       4.08989228
H       11.58844038      17.74642366       5.37134162
O       12.38118542      20.81087083       1.37784100
H       12.40191901      20.83122066       0.39951202
H       13.19088362      21.27352950       1.67602410
O       10.13512100      22.11590578       2.30555895
H       10.94057711      21.67624906       1.96391430
H       10.15738123      23.03249728       1.96281539
O       12.38660065      20.81581500       5.95936933
H       12.40618376      19.89253490       5.63454155
H       13.19680762      21.24638178       5.61708168
O       10.12091238      22.10813590       5.06668805
H       10.14335908      22.10271682       4.08801208
H       10.93380592      21.64825998       5.36098259
O       14.69437598       1.30881841       1.38141690
H       14.70759410       1.32851708       0.40305002
H       15.49521630       1.78186295       1.68570849
O       16.93053810       2.63359543       2.31553000
H       16.92184045       2.65000323       3.29400214
H       16.91365677       3.56489568       2.01481876
O       14.65612222       1.26243007       5.96013658
H       13.84493028       1.70728665       5.64043239
H       14.63173084       0.34997178       5.60677222
O       16.91083190       2.59669592       5.07743921
H       16.12607108       2.10714396       5.39738046
H       17.69448301       2.11611716       5.41444230
O       16.88444707       5.22694863       1.37448907
H       16.86458896       5.22640858       0.39549699
H       16.07449027       5.68910139       1.67185963
O       14.61533822       6.50749890       2.28862391
H       14.60407388       6.48428211       3.26728690
H       13.81685887       6.02385440       1.99322900
O       16.88609094       5.20146602       5.97066708
H       16.89157380       5.18004775       6.94941526
H       16.89564540       4.26709667       5.67781430
O       14.62617598       6.48781409       5.04959421
H       13.84700857       6.00897457       5.39781441
H       15.41433418       6.01411577       5.38593037
O       14.64085036       9.10735321       1.38162200
H       13.83239528       9.54946921       1.71194009
H       14.60763275       8.18793299       1.71682940
O       16.89249233      10.41513866       2.30284556
H       16.87557340      10.40728993       3.28121765
H       16.08393112       9.94920751       2.00654683
O       14.65342380       9.09926468       5.96402079
H       13.84777429       9.54481847       5.63178435
H       14.62346812       8.18150214       5.62584779
O       16.90926424      10.42239218       5.07231617
H       16.12387150       9.94276155       5.40534241
H       17.69183628       9.94099454       5.40997996
O       16.90721372      13.02126614       1.37990306
H       16.89608250      12.99293401       0.40154694
H       16.90370944      12.09132158       1.68521767
O       14.65392995      14.31715844       2.31131297
H       14.67662363      14.30332259       3.28980867
H       15.46268098      13.85723709       2.00713824
O       16.92296258      13.03454026       5.97225450
H       16.93458769      12.11175199       5.64570288
H       17.72873337      13.46330777       5.61797205
O       14.65370443      14.31284552       5.07459837
H       15.46646119      13.87977140       5.40680396
H       14.66892774      15.23016694       5.41648096
O       14.63756442      16.91803377       1.39125780
H       13.82305607      17.34998842       1.72010273
H       14.62448638      15.99992761       1.73080288
O       16.87611009      18.24104832       2.30165877
H       16.86374781      18.20985275       3.27986280
H       16.07125168      17.77057187       2.00163535
O       14.64740170      16.90754294       6.01002665
H       14.61951262      16.92901165       6.98830644
H       13.84335974      17.36922236       5.69553302
O       16.89717630      18.18825405       5.06556793
H       16.11381677      17.71700836       5.41604260
H       17.68349077      17.70436244       5.39076578
O       16.91187463      20.82990235       1.35701145
H       16.91725692      19.91444605       1.70406943
H       17.72002775      21.26347183       1.69920046
O       14.64855728      22.11459357       2.25925387
H       15.45793768      21.67763381       1.92352804
H       14.68232445      23.03900714       1.93858438
O       16.90263541      20.79797305       5.94102433
H       16.90472969      20.79463916       6.91957345
H       16.90227204      19.85984987       5.65981049
O       14.64197608      22.08778141       5.01706659
H       14.66873117      22.08411530       4.03833951
H       15.45186647      21.62890771       5.32018551
O       19.16222569       1.31185565       1.38631607
H       18.37979880       1.78848781       1.73188508
H       19.94382990       1.79295843       1.72791784
O       21.39696508       2.62184922       2.31828916
H       21.39455153       2.64909347       3.29691567
H       21.41035518       3.55096543       2.01093765
O       19.15782460       1.28336414       5.99879235
H       19.15870683       1.25320047       6.97720590
H       19.15892036       0.35498811       5.68874392
O       21.39523249       2.61314797       5.07295118
H       20.61894266       2.12413555       5.41422183
H       22.18748198       2.14421648       5.40505407
O       21.40917492       5.22438586       1.38768012
H       21.44212375       5.22387028       0.40938493
H       22.21575318       5.68775203       1.69223836
O       19.14085347       6.50658260       2.30343394
H       18.35879295       6.03397553       1.95227108
H       19.93003789       6.03585574       1.96618099
O       21.39930785       5.22645321       5.97130150
H       20.58701621       5.65880497       5.63651535
H       21.37939056       4.30488569       5.64246542
O       19.13818706       6.50976620       5.05871636
H       19.11352740       6.49731050       4.08008826
H       18.33212807       6.04523544       5.36336033
O       19.14537371       9.11304884       1.39112902
H       18.33767718       9.55310837       1.72682767
H       19.12500215       8.19699717       1.73523157
O       21.40981086      10.40752602       2.29513053
H       20.59934487       9.97082842       1.96216042
H       21.38775691      11.32576411       1.95695482
O       19.15602777       9.10483019       5.99679772
H       19.16748462       8.18926794       5.65085253
H       19.96384878       9.53762609       5.65220285
O       21.41425116      10.37468973       5.05590438
H       21.43525761      10.37547421       4.07735258
H       22.22913262       9.92278432       5.35671506
O       21.39235310      13.01105175       1.35963006
H       21.37343938      13.01320933       0.38080890
H       20.58866313      13.48719117       1.65359330
O       19.15903694      14.33679166       2.26893904
H       18.34970330      13.89271159       1.94270499
H       19.12232128      15.25976076       1.94406520
O       21.40230898      12.97767967       5.96369862
H       21.40595135      12.96626552       6.94249173
H       21.40910563      12.04309872       5.67214265
O       19.18114939      14.30022230       5.02316838
H       19.20234594      14.29921914       4.04441075
H       19.98022804      13.82330928       5.32783144
O       19.12993951      16.94680598       1.38149412
H       19.12450110      16.97327238       0.40298476
H       18.32236481      17.41255801       1.68011543
O       21.40028443      18.20460311       2.32855140
H       21.37815498      18.18490118       3.30693131
H       20.58946795      17.75250294       2.01859354
O       19.15181884      16.88371145       5.97025620
H       19.18835113      15.97020575       5.61925587
H       19.95945926      17.33529595       5.65111790
O       21.41233623      18.19975370       5.08497327
H       22.22161263      17.76145055       5.41833819
H       21.43711839      19.12198407       5.41162438
O       21.41703375      20.80095372       1.38927315
H       21.42332818      19.88714110       1.74000802
H       22.22995172      21.23102781       1.72587574
O       19.16515329      22.11955323       2.28768978
H       19.97348034      21.67882708       1.95503938
H       19.18540822      23.03869875       1.95183066
O       21.42062672      20.81467773       5.98527078
H       20.63354710      21.28228297       5.63890670
H       22.20233226      21.29935484       5.65114560
O       19.16229179      22.10767321       5.04997895
H       19.14538107      22.11007893       4.07143536
H       18.35610403      21.63416484       5.34004666
O       23.62965435       1.28126672       1.39215967
H       22.83199116       1.73033551       1.73815145
H       23.60915007       0.36319314       1.72988566
O       25.89206221       2.60225845       2.28505854
H       25.10511866       2.11950944       1.96098632
H       26.67441417       2.12016452       1.94666431
O       23.66971853       1.32134419       5.97661493
H       23.69899380       1.33432541       6.95483180
H       24.46843376       1.79551455       5.66813089
O       25.91759084       2.63603287       5.04717339
H       25.90877797       2.64691814       4.06859542
H       25.91271487       3.56998725       5.34089407
O       25.92402259       5.20865250       1.39608166
H       25.91428764       5.18743510       0.41751013
H       25.91164890       4.27401239       1.68802806
O       23.67198327       6.51806072       2.30904927
H       23.68989324       6.50789927       3.28763804
H       24.47772343       6.04978530       2.00928833
O       25.91481971       5.23061753       5.96851028
H       25.89702761       5.22821308       6.94728555
H       25.10532459       5.69846719       5.67690490
O       23.66022801       6.52342589       5.06856932
H       22.84755317       6.08620280       5.39513980
H       23.64361077       7.44099879       5.41017144
O       23.67173972       9.11477130       1.37647702
H       22.86088847       9.55197046       1.70687597
H       23.65477458       8.19804514       1.71962215
O       25.92679717      10.40544425       2.31230241
H       25.12112702       9.96420784       1.97463930
H       25.89841432      11.32429506       1.97504079
O       23.67534975       9.11653035       5.99207344
H       23.68678620       9.14610863       6.97057462
H       24.48349496       9.57965225       5.68983906
O       25.92692380      10.41637487       5.07288579
H       25.94162552      10.40217679       4.09419182
H       26.73728226       9.95126951       5.36629328
O       25.89253632      13.00011303       1.38880653
H       25.88504470      13.01498421       0.41012186
H       25.08508917      13.47006959       1.68189946
O       23.64021352      14.30863559       2.28548674
H       22.83447602      13.87284650       1.93918609
H       23.62192007      15.23073494       1.95814911
O       25.89196756      13.01754931       6.00153987
H       25.08328888      13.44698788       5.65408259
H       25.88543197      12.09849967       5.66425215
O       23.64537018      14.29602714       5.05136307
H       23.62327467      14.29338664       4.07294277
H       22.83946436      13.82686762       5.34911887
O       23.65200448      16.91912934       1.37755198
H       22.86912786      17.39276766       1.72505842
H       24.43830119      17.39948508       1.70692873
O       25.91056392      18.23526683       2.29260990
H       26.71137953      17.78066671       1.96233126
H       25.95017905      19.15183750       1.95111476
O       23.67905632      16.90296083       5.98098503
H       23.67870229      16.87094234       6.95956269
H       23.66349884      15.97445109       5.67284834
O       25.91024283      18.24243417       5.05615679
H       25.88721992      18.23463149       4.07785416
H       25.11248243      17.76299762       5.35882621
O       25.94997244      20.83926478       1.37032396
H       25.96063639      20.85307998       0.39182805
H       26.75861828      21.30318664       1.66794206
O       23.66636946      22.09066580       2.30747259
H       23.69966210      22.08850912       3.28586792
H       24.48499919      21.65302283       1.99772102
O       25.93404522      20.84216938       6.00015308
H       25.92936461      20.80646419       6.97824754
H       25.92350005      19.91472603       5.68767020
O       23.67502450      22.13277599       5.06745933
H       24.47738465      21.69500343       5.41748705
H       23.69837579      23.05489710       5.39524641
O        1.12292245       1.30781529       8.75594439
H        1.13342144       1.33381626       7.77734328
H        1.93575950       1.76382006       9.05526149
O        3.39231896       2.58941189       9.66834321
H        3.41227692       2.57261026      10.64712480
H        4.19526175       2.11902979       9.36364531
O        1.12788733       1.28412721      13.33679695
H        1.16516054       0.36412945      13.00339927
H        1.93234838       1.73119179      13.00348225
O        3.38658038       2.59011375      12.42542466
H        4.19510859       2.16294650      12.77558596
H        3.39614508       3.51206207      12.75412274
O        3.39316762       5.18295034       8.74952508
H        3.41759661       4.26658978       9.09436000
H        4.20217344       5.62564105       9.07700206
O        1.14306575       6.50631591       9.63379936
H        1.15527155       6.50228956      10.61247661
H        1.95167289       6.03633377       9.34387130
O        3.36946259       5.20505599      13.31949394
H        3.34889552       5.22910674      14.29791819
H        2.56289190       5.66848650      13.01444157
O        1.11859995       6.51102939      12.39529286
H        0.31070759       6.07146737      12.73050417
H        1.09566559       7.42971083      12.73221992
O        1.11640272       9.11582339       8.71187509
H        1.12656656       9.08629018       7.73344681
H        1.12823770       8.18603878       9.01719085
O        3.36851522      10.40927418       9.66480783
H        2.56490689       9.97166467       9.31771259
H        3.35912919      11.32510543       9.31970739
O        1.11109386       9.11088481      13.32653461
H        1.13613585       9.11283683      14.30522001
H        1.92253364       9.57026712      13.02878691
O        3.38418822      10.39834535      12.42768048
H        3.37845564      10.41357742      11.44894908
H        3.37918446      11.33481184      12.71356136
O        3.41299648      13.00423492       8.72743264
H        3.42820235      13.01543285       7.74910466
H        4.21612655      13.47537612       9.02955424
O        1.16742359      14.31432976       9.64963418
H        1.17499379      14.30624672      10.62826435
H        1.97577113      13.84755445       9.35528126
O        3.37593514      13.00659111      13.31130199
H        2.59282272      13.49449926      12.98391085
H        4.16320542      13.49198547      12.99091668
O        1.12887315      14.32780511      12.41194101
H        0.32693562      13.87720274      12.74592140
H        1.09760350      15.24332772      12.75736106
O        1.10223288      16.91541180       8.72944578
H        1.10410946      16.89036863       7.75082873
H        1.12894678      15.98536237       9.03314777
O        3.36213788      18.20608495       9.65313074
H        2.55737832      17.76685508       9.31010758
H        3.33843980      19.12651389       9.31967862
O        1.11350348      16.92591609      13.34605252
H        1.10366382      16.94177790      14.32435735
H        0.30989516      17.39964260      13.05022006
O        3.40586600      18.17891527      12.41171849
H        3.36526977      18.17086550      11.43359149
H        2.59256239      17.73518159      12.72615998
O        3.37520103      20.80081632       8.72767780
H        3.35177219      20.82408986       7.74946095
H        2.57823301      21.28125829       9.03299166
O        1.14019631      22.11947702       9.65689886
H        0.32536674      21.68414909       9.33355810
H        1.11491689      23.04055427       9.32608824
O        3.41809892      20.78690864      13.32580484
H        3.44292480      19.86644554      12.99442447
H        4.21656870      21.23537948      12.97997028
O        1.17388844      22.10565822      12.41966801
H        1.18263396      22.09386593      11.44106807
H        1.97593448      21.62717868      12.71351134
O        5.63239670       1.29129876       8.73372963
H        5.62680701       1.27025485       7.75506239
H        5.63554417       0.35732884       9.02831620
O        7.88663851       2.58553754       9.65897521
H        7.08351062       2.14136446       9.31852335
H        7.86031914       3.50579425       9.32548094
O        5.64229918       1.31007874      13.34901322
H        5.66830663       1.31295882      14.32760099
H        6.45424360       1.76617204      13.04645252
O        7.89748603       2.58837273      12.41752233
H        7.91213845       2.57065540      11.43892085
H        8.71206364       2.13656657      12.71913766
O        7.88457485       5.18291228       8.73278471
H        7.10369817       5.66914925       9.06932355
H        8.66979727       5.65832622       9.07267179
O        5.65007493       6.49428062       9.65614631
H        5.64409328       6.52021864      10.63471123
H        5.63440604       7.42631393       9.35633431
O        7.88252563       5.18823471      13.34059158
H        7.07158516       5.62418441      13.00755919
H        7.86700679       4.26996684      13.00167517
O        5.63357107       6.49153894      12.41639364
H        4.81876077       6.05803010      12.74356251
H        5.61618429       7.40592066      12.76572213
O        5.62598270       9.10102741       8.75783169
H        4.83949569       9.58016305       9.08947291
H        6.40897764       9.58271141       9.09384316
O        7.88247122      10.40995356       9.67660108
H        7.88603401      10.42974531      10.65501638
H        7.88241955      11.34112024       9.37490630
O        5.63035506       9.08753775      13.35887716
H        5.60266422       9.10178559      14.33724802
H        4.83088147       9.55972422      13.04901465
O        7.88851438      10.39407574      12.43694986
H        7.10367505       9.91777437      12.77619087
H        8.67397184       9.91552845      12.77252124
O        7.88885110      13.01345679       8.75815201
H        7.86809478      13.03241624       7.77991338
H        7.08873876      13.49115174       9.05844428
O        5.64407276      14.33242650       9.66055212
H        5.64294726      14.35036665      10.63917196
H        5.64251408      15.26613210       9.36593125
O        7.88067569      12.99900326      13.34618929
H        7.89982067      12.08050494      13.00826181
H        8.69368894      13.43378388      13.01767403
O        5.63777108      14.32155168      12.42612591
H        6.43692479      13.86643927      12.76128211