288
# CELL(abcABC):   25.55133    29.50414    27.81677    90.00000    90.00000    90.00000  Step:           0  Bead:       0 forces{atomic_unit}  cell{atomic_unit}
       O  1.25491e-02 -6.71559e-03  9.89475e-03
       H  2.80245e-03 -2.10174e-03 -1.91588e-02
       H -1.45884e-02  8.58159e-03  9.77218e-03
       O -1.22487e-04  1.37289e-02  1.01844e-02
       H -1.77085e-02 -6.92001e-03 -4.71998e-03
       H  1.78201e-02 -6.54706e-03 -5.19245e-03
       O -1.14676e-02  8.14279e-03  1.02767e-02
       H -3.17387e-03 -1.87127e-02 -4.61272e-03
       H  1.47728e-02  1.16244e-02 -5.43766e-03
       O -1.22272e-02  6.02583e-03  1.02643e-02
       H -2.91168e-03  1.95209e-03 -1.91385e-02
       H  1.49775e-02 -8.35264e-03  9.46605e-03
       O  1.12995e-02  7.72268e-03 -9.75156e-03
       H -1.47587e-02  1.18353e-02  5.00994e-03
       H  3.27971e-03 -1.87381e-02  4.66954e-03
       O  1.16226e-02 -7.47064e-03  9.84482e-03
       H -1.47412e-02 -1.19195e-02 -4.47676e-03
       H  3.41877e-03  1.87822e-02 -4.62617e-03
       O -5.33671e-04  1.33818e-02 -1.10873e-02
       H  1.59115e-04  3.96006e-03  1.91969e-02
       H  1.71173e-04 -1.69555e-02 -9.34380e-03
       O -1.24990e-02  7.17491e-03  8.68634e-03
       H -2.75276e-03  1.79009e-03 -1.89868e-02
       H  1.45656e-02 -8.36879e-03  1.01877e-02
       O -1.26960e-02 -6.77125e-03  9.24512e-03
       H -2.77064e-03 -1.71487e-03 -1.92305e-02
       H  1.48779e-02  8.12118e-03  9.92373e-03
       O  9.46445e-04 -1.31229e-02 -1.00493e-02
       H -4.99573e-04 -3.76049e-03  1.92087e-02
       H -5.49267e-05  1.69195e-02 -9.66068e-03
       O  1.23948e-02  5.87735e-03  1.04314e-02
       H -1.45865e-02  1.21409e-02 -4.74733e-03
       H  2.80754e-03 -1.83957e-02 -5.18646e-03
       O  1.41384e-06  1.44594e-02 -8.67349e-03
       H -1.77521e-02 -6.77884e-03  4.40287e-03
       H  1.78298e-02 -6.78334e-03  4.44353e-03
       O  1.12296e-02 -6.61740e-03  1.06105e-02
       H  3.43646e-03 -1.89772e-03 -1.90062e-02
       H -1.46700e-02  8.41351e-03  9.47429e-03
       O  1.89171e-04 -1.30675e-02 -1.07335e-02
       H -8.79289e-05 -3.90664e-03  1.91434e-02
       H -1.54629e-04  1.69407e-02 -9.37501e-03
       O -6.34793e-04  1.45883e-02 -9.55012e-03
       H  5.12556e-05  3.12482e-03  1.90366e-02
       H  4.43137e-04 -1.71677e-02 -9.54594e-03
       O  7.93855e-04  1.44015e-02 -1.00446e-02
       H -1.76762e-02 -6.39233e-03  4.79572e-03
       H  1.74706e-02 -6.99862e-03  4.76958e-03
       O -1.27059e-02  6.67339e-03 -9.93228e-03
       H -2.93539e-03 -1.86963e-02  4.48549e-03
       H  1.47998e-02  1.21467e-02  4.71828e-03
       O -1.28993e-02  6.06809e-03 -9.23805e-03
       H -2.76222e-03  1.98107e-03  1.92274e-02
       H  1.48281e-02 -7.92223e-03 -9.99507e-03
       O -1.26663e-02 -7.13061e-03 -1.00702e-02
       H -3.09563e-03 -1.32496e-03  1.89805e-02
       H  1.49746e-02  8.21883e-03 -9.62434e-03
       O -1.19446e-02 -7.70996e-03 -9.32143e-03
       H  1.47964e-02 -1.16670e-02  5.22344e-03
       H -2.79038e-03  1.87966e-02  4.51174e-03
       O  1.22337e-02  6.36924e-03 -9.88148e-03
       H -1.43119e-02  1.22804e-02  4.70536e-03
       H  3.04148e-03 -1.86276e-02  4.63728e-03
       O  1.12523e-02 -7.91023e-03  9.87576e-03
       H -1.45242e-02 -1.17013e-02 -5.20747e-03
       H  3.30208e-03  1.87516e-02 -4.66451e-03
       O  1.40010e-03 -1.36987e-02  1.04540e-02
       H -1.78335e-02  6.46366e-03 -4.71024e-03
       H  1.73249e-02  6.93049e-03 -5.22226e-03
       O  1.29666e-02  7.29431e-03  8.98758e-03
       H  2.57839e-03  1.79763e-03 -1.90620e-02
       H -1.44065e-02 -8.42922e-03  1.00427e-02
       O -5.62167e-04 -1.44407e-02 -1.00652e-02
       H -1.76344e-02  6.95745e-03  4.83481e-03
       H  1.76113e-02  6.39110e-03  4.78471e-03
       O -1.22438e-02 -5.94494e-03  9.92560e-03
       H  1.43220e-02 -1.21482e-02 -4.78094e-03
       H -2.93330e-03  1.86338e-02 -5.08543e-03
       O -1.22554e-02  5.66017e-03  1.04526e-02
       H -2.86491e-03 -1.85799e-02 -5.16003e-03
       H  1.45032e-02  1.23110e-02 -4.64926e-03
       O -1.72779e-05 -1.42572e-02  9.85118e-03
       H  4.84236e-04 -3.40871e-03 -1.91174e-02
       H -2.88333e-04  1.68225e-02  9.66642e-03
       O  7.15384e-04 -1.38649e-02 -9.84779e-03
       H -1.79603e-02  6.37294e-03  4.53872e-03
       H  1.76604e-02  6.85581e-03  4.49591e-03
       O  1.30637e-02  7.19033e-03 -8.83536e-03
       H  2.68157e-03  1.60904e-03  1.90532e-02
       H -1.44557e-02 -8.26269e-03 -1.01464e-02
       O  1.25629e-02 -5.83391e-03 -1.04191e-02
       H  2.74717e-03 -2.34634e-03  1.90398e-02
       H -1.50565e-02  8.41125e-03 -9.40706e-03
       O  1.16587e-02 -7.19143e-03 -9.30376e-03
       H -1.47593e-02 -1.18684e-02  4.98442e-03
       H  2.84063e-03  1.88132e-02  4.37629e-03
       O  6.36088e-05  1.33491e-02  1.09935e-02
       H -2.05691e-04  3.88390e-03 -1.90710e-02
       H  1.30520e-04 -1.69788e-02  9.28551e-03
       O  1.13331e-02  6.70970e-03 -1.07049e-02
       H  3.34808e-03  2.05347e-03  1.91041e-02
       H -1.46970e-02 -8.66176e-03 -9.48711e-03
       O -1.30941e-02 -6.68921e-03 -9.62859e-03
       H -2.57366e-03 -1.49326e-03  1.90933e-02
       H  1.51505e-02  8.16320e-03 -9.50384e-03
       O -1.24979e-02 -7.20107e-03 -8.70840e-03
       H  1.46812e-02 -1.19889e-02  4.46644e-03
       H -3.00144e-03  1.87406e-02  4.43333e-03
       O -1.02645e-03  1.43283e-02  9.25820e-03
       H  3.12791e-04  3.22193e-03 -1.93103e-02
       H  5.04750e-04 -1.69154e-02  1.00353e-02
       O  8.57860e-04  1.46428e-02  9.94854e-03
       H -1.78318e-02 -6.53405e-03 -4.61232e-03
       H  1.75683e-02 -7.16927e-03 -4.70071e-03
       O  8.91855e-05 -1.37205e-02  1.04051e-02
       H -1.76600e-02  6.48741e-03 -5.37193e-03
       H  1.75154e-02  6.91717e-03 -4.60988e-03
       O  2.60400e-04 -1.31485e-02  9.36971e-03
       H -6.42903e-05 -3.71310e-03 -1.93007e-02
       H -4.98853e-05  1.71369e-02  9.85798e-03
       O -1.12590e-02  7.77322e-03 -9.75552e-03
       H -3.42031e-03 -1.87245e-02  4.54166e-03
       H  1.47235e-02  1.19027e-02  5.10440e-03
       O -1.25454e-02 -8.06295e-03  1.01177e-02
       H  1.50654e-02 -1.14356e-02 -4.66642e-03
       H -2.98388e-03  1.87401e-02 -4.92205e-03
       O  1.13719e-02 -7.11717e-03 -1.11839e-02
       H  3.48281e-03 -1.92216e-03  1.92699e-02
       H -1.46938e-02  8.66075e-03 -9.33474e-03
       O  1.14956e-02  6.37773e-03  9.27091e-03
       H  3.10868e-03  1.84401e-03 -1.92218e-02
       H -1.47818e-02 -8.35690e-03  9.91460e-03
       O -1.10762e-02 -7.88652e-03  1.02100e-02
       H -3.43664e-03 -1.41516e-03 -1.91370e-02
       H  1.45624e-02  8.71317e-03  9.60986e-03
       O -1.20921e-02  6.73893e-03 -9.60312e-03
       H -2.81213e-03  2.05270e-03  1.90529e-02
       H  1.44796e-02 -8.62277e-03 -9.75731e-03
       O  1.21380e-02  6.71141e-03  1.01903e-02
       H -1.43427e-02  1.20343e-02 -5.18842e-03
       H  2.66788e-03 -1.87309e-02 -4.65691e-03
       O  1.19579e-02 -7.62175e-03 -1.00509e-02
       H -1.49597e-02 -1.17935e-02  4.71262e-03
       H  3.26387e-03  1.85169e-02  4.69182e-03
       O -1.30371e-02 -5.80258e-03  9.25552e-03
       H -2.70622e-03 -1.96380e-03 -1.91726e-02
       H  1.49250e-02  7.96284e-03  9.93421e-03
       O -1.11887e-02  7.47866e-03 -1.04202e-02
       H -3.37494e-03  1.33281e-03  1.90680e-02
       H  1.47701e-02 -8.69957e-03 -9.35187e-03
       O  1.13234e-02  7.82663e-03  1.05198e-02
       H -1.48191e-02  1.16084e-02 -5.25827e-03
       H  3.27676e-03 -1.84477e-02 -4.76222e-03
       O  1.27673e-02 -7.15017e-03 -8.91919e-03
       H -1.47377e-02 -1.18579e-02  4.45230e-03
       H  2.68582e-03  1.87961e-02  4.57258e-03
       O -1.29001e-02  6.01607e-03 -1.07232e-02
       H -2.54568e-03 -1.85187e-02  5.46887e-03
       H  1.46656e-02  1.18852e-02  4.97421e-03
       O  9.81297e-05  1.42012e-02  8.86610e-03
       H -1.78444e-02 -6.53542e-03 -4.43458e-03
       H  1.77813e-02 -6.85133e-03 -4.39568e-03
       O  1.20854e-02 -7.83925e-03 -9.07687e-03
       H  2.66074e-03 -1.68875e-03  1.90926e-02
       H -1.44459e-02  8.94597e-03 -9.91879e-03
       O -6.03967e-05 -1.41111e-02  1.00294e-02
       H  4.13597e-04 -3.34893e-03 -1.90462e-02
       H -2.67048e-04  1.69911e-02  9.57552e-03
       O  1.32366e-03  1.47050e-02  9.59382e-03
       H -3.41403e-04  3.10735e-03 -1.91774e-02
       H -6.86056e-04 -1.71764e-02  9.62883e-03
       O -1.01810e-04  1.44403e-02  1.05734e-02
       H -1.75299e-02 -7.38394e-03 -4.74147e-03
       H  1.76320e-02 -6.73117e-03 -5.62020e-03
       O  4.80010e-04 -1.39525e-02  9.56282e-03
       H -1.77553e-02  7.16660e-03 -4.61598e-03
       H  1.74772e-02  6.80446e-03 -5.00523e-03
       O -1.16400e-02  8.26334e-03  9.26067e-03
       H -2.87117e-03  1.36936e-03 -1.91425e-02
       H  1.43582e-02 -8.88917e-03  9.87610e-03
       O  1.23131e-02  6.40102e-03 -8.88563e-03
       H -1.49017e-02  1.21205e-02  4.33766e-03
       H  2.95318e-03 -1.87346e-02  5.06715e-03
       O  1.18935e-02 -7.72832e-03  1.02005e-02
       H -1.49180e-02 -1.16832e-02 -4.69475e-03
       H  3.41681e-03  1.85374e-02 -4.73340e-03
       O -1.28945e-02  7.28673e-03  8.82549e-03
       H -2.75048e-03 -1.89499e-02 -4.53569e-03
       H  1.48783e-02  1.19251e-02 -4.25776e-03
       O -1.28545e-02  7.21386e-03  9.07831e-03
       H -2.59449e-03  1.65101e-03 -1.91169e-02
       H  1.47405e-02 -8.38018e-03  9.80490e-03
       O -1.14591e-02  7.12091e-03 -9.29799e-03
       H -2.89002e-03 -1.87587e-02  4.33195e-03
       H  1.46796e-02  1.18484e-02  4.94308e-03
       O  1.01459e-03 -1.43990e-02 -9.25917e-03
       H -2.76172e-04 -3.25443e-03  1.93167e-02
       H -5.21940e-04  1.70608e-02 -1.00389e-02
       O  1.28146e-02 -6.29629e-03 -9.31307e-03
       H  2.76837e-03 -1.68022e-03  1.91479e-02
       H -1.51040e-02  8.11889e-03 -9.72428e-03
       O  1.17995e-02 -7.02992e-03 -1.05830e-02
       H -1.49638e-02 -1.16457e-02  4.68521e-03
       H  3.34920e-03  1.84248e-02  5.39908e-03
       O -1.14483e-02 -7.21794e-03  1.09752e-02
       H -3.46967e-03 -1.91899e-03 -1.91667e-02
       H  1.47492e-02  8.75800e-03  9.46204e-03
       O -1.20632e-02  6.06688e-03 -1.01921e-02
       H -3.05868e-03  2.18110e-03  1.91160e-02
       H  1.47445e-02 -8.33950e-03 -9.62220e-03
       O -1.29264e-02 -7.40534e-03 -9.08220e-03
       H -2.68576e-03 -1.51481e-03  1.91340e-02
       H  1.47914e-02  8.56442e-03 -9.99637e-03
       O  6.52182e-04  1.35710e-02 -9.31439e-03
       H -1.78666e-02 -6.90723e-03  4.32601e-03
       H  1.76658e-02 -6.80717e-03  4.97022e-03
       O -1.38959e-03  1.35249e-02  1.04464e-02
       H  6.68370e-04  3.70317e-03 -1.93086e-02
       H  2.34948e-04 -1.71399e-02  9.51085e-03
       O  1.15884e-02  8.27459e-03 -9.31249e-03
       H  2.93825e-03  1.54329e-03  1.91956e-02
       H -1.42731e-02 -8.93508e-03 -9.84653e-03
       O  8.35063e-04  1.34489e-02 -1.03904e-02
       H -4.39782e-04  3.66470e-03  1.92058e-02
       H -1.53257e-04 -1.72720e-02 -9.43471e-03
       O -5.92914e-04  1.40521e-02 -9.52686e-03
       H -1.75673e-02 -7.03812e-03  5.22306e-03
       H  1.76865e-02 -7.05176e-03  4.43621e-03
       O  1.17454e-02  8.28914e-03 -1.03846e-02
       H -1.48238e-02  1.13510e-02  5.27754e-03
       H  2.94827e-03 -1.87880e-02  4.82765e-03
       O  1.27422e-02  6.34151e-03 -9.21658e-03
       H  2.72368e-03  1.73139e-03  1.91902e-02
       H -1.50629e-02 -8.02179e-03 -9.85875e-03
       O -9.86887e-07  1.41601e-02 -9.96920e-03
       H  3.10761e-04  3.44374e-03  1.89955e-02
       H -2.66577e-04 -1.70688e-02 -9.66597e-03
       O -1.15879e-02 -7.42805e-03 -1.01042e-02
       H  1.47311e-02 -1.18800e-02  4.60057e-03
       H -3.41135e-03  1.85816e-02  4.60855e-03
       O -2.70940e-04 -1.39956e-02 -1.01396e-02
       H -1.75859e-02  7.22460e-03  4.70026e-03
       H  1.76736e-02  6.51258e-03  5.22252e-03
       O -1.26488e-02 -6.72653e-03  9.96217e-03
       H  1.47117e-02 -1.21758e-02 -4.72989e-03
       H -2.89519e-03  1.87229e-02 -4.57849e-03
       O  1.27121e-02  6.43656e-03  9.29532e-03
       H -1.48890e-02  1.18295e-02 -4.49067e-03
       H  2.64229e-03 -1.87197e-02 -5.19083e-03
       O  1.27374e-02  6.27477e-03  9.37526e-03
       H  2.79114e-03  1.70432e-03 -1.91316e-02
       H -1.51188e-02 -8.10829e-03  9.77754e-03
       O  1.27514e-02 -7.93657e-03  8.80663e-03
       H  2.63273e-03 -1.46280e-03 -1.89957e-02
       H -1.44368e-02  8.57599e-03  1.01529e-02
       O -2.61357e-04 -1.37838e-02 -1.12286e-02
       H  1.53195e-04 -3.72241e-03  1.90392e-02
       H -2.47418e-05  1.71817e-02 -9.20358e-03
       O -1.16074e-02  6.65357e-03  1.04609e-02
       H -3.31426e-03 -1.84337e-02 -5.24593e-03
       H  1.48741e-02  1.18469e-02 -4.63275e-03
       O -1.26215e-02 -6.67968e-03 -9.20554e-03
       H  1.48488e-02 -1.17045e-02  4.38660e-03
       H -2.68954e-03  1.87188e-02  5.17070e-03
       O -6.31735e-04 -1.37004e-02 -9.31386e-03
       H -1.75451e-02  6.66564e-03  5.05490e-03
       H  1.77743e-02  6.95566e-03  4.39682e-03
       O -1.20407e-02 -5.64235e-03  1.03967e-02
       H  1.44110e-02 -1.21830e-02 -4.65674e-03
       H -2.83129e-03  1.84558e-02 -5.09836e-03
       O -1.20358e-02 -7.71637e-03 -9.18557e-03
       H -2.75604e-03 -1.73997e-03  1.90560e-02
       H  1.44445e-02  8.83976e-03 -9.86826e-03
       O  7.71953e-04 -1.37988e-02  1.05373e-02
       H -4.10111e-04 -3.53962e-03 -1.92087e-02
       H -1.04990e-04  1.71905e-02  9.38231e-03
       O  1.31246e-02 -6.20785e-03  9.67606e-03
       H  2.50119e-03 -1.77442e-03 -1.92589e-02
       H -1.49921e-02  8.04374e-03  9.63620e-03
       O  1.17938e-02 -7.19843e-03  9.24242e-03
       H -1.46707e-02 -1.19705e-02 -5.24922e-03
       H  2.93574e-03  1.86926e-02 -4.61090e-03
       O  6.42658e-04 -1.36465e-02  9.35376e-03
       H -1.78172e-02  6.90368e-03 -4.32520e-03
       H  1.75628e-02  6.83019e-03 -4.94742e-03
       O  1.20235e-02  7.92741e-03  9.24592e-03
       H  2.74151e-03  1.60335e-03 -1.91662e-02
       H -1.43995e-02 -9.00632e-03  9.84688e-03
288
# CELL(abcABC):   25.55133    29.50414    27.81677    90.00000    90.00000    90.00000  Step:           1  Bead:       0 forces{atomic_unit}  cell{atomic_unit}
       O -4.04997e-03  2.76603e-03 -3.36384e-03
       H  3.87773e-03 -2.71769e-03 -6.58455e-04
       H  1.08029e-03 -3.81487e-04  4.70882e-03
       O  2.65695e-05 -5.21277e-03 -3.20888e-03
       H -3.30926e-03  2.60426e-03  2.06856e-03
       H  3.28847e-03  3.09208e-03  1.59755e-03
       O  4.67984e-03 -2.24677e-03 -3.22858e-03
       H -4.29723e-03 -7.85799e-04  2.40291e-03
       H -3.11151e-04  4.16857e-03  1.22397e-03
       O  4.08672e-03 -3.42454e-03 -3.38792e-03
       H -3.97710e-03  2.57948e-03 -4.09214e-04
       H -3.65960e-04  4.37109e-04  4.53644e-03
       O -4.73808e-03 -2.28722e-03  3.41149e-03
       H  2.59686e-04  4.32123e-03 -1.52764e-03
       H  4.31642e-03 -1.06929e-03 -2.16456e-03
       O -4.29686e-03  2.33427e-03 -3.53883e-03
       H  4.01904e-04 -4.29007e-03  2.14567e-03
       H  4.40562e-03  1.16681e-03  2.19482e-03
       O -3.53061e-04 -4.95352e-03  3.01680e-03
       H  1.20118e-04  5.19942e-03 -3.09950e-06
       H  1.06913e-04  3.48739e-04 -4.55161e-03
       O  4.06146e-03 -2.40235e-03 -3.68881e-03
       H -3.77089e-03  2.33384e-03 -1.26928e-03
       H -1.30773e-03  7.68358e-04  4.95691e-03
       O  4.05394e-03  3.03466e-03 -3.65474e-03
       H -3.83153e-03 -2.32298e-03 -1.04176e-03
       H -9.44073e-04 -1.05289e-03  4.72299e-03
       O  9.13329e-04  5.15856e-03  3.52844e-03
       H -4.83862e-04 -4.85445e-03  5.32051e-04
       H -1.56442e-05 -4.13196e-04 -4.71181e-03
       O -4.45666e-03 -2.91205e-03 -3.03009e-03
       H  1.36910e-03  4.19490e-03  2.21432e-03
       H  3.87311e-03 -1.71139e-03  1.40152e-03
       O  5.85390e-05 -4.28419e-03  4.51835e-03
       H -3.38898e-03  2.68910e-03 -2.21327e-03
       H  3.40136e-03  2.70584e-03 -2.20089e-03
       O -4.39306e-03  2.51238e-03 -3.14289e-03
       H  4.42121e-03 -2.46884e-03 -1.39162e-04
       H  2.04084e-04 -1.55489e-04  4.62850e-03
       O  8.74595e-05  5.12239e-03  3.18702e-03
       H -6.71825e-05 -5.10498e-03  1.32260e-04
       H -1.09056e-04 -2.54312e-04 -4.56342e-03
       O -7.39805e-04 -4.99110e-03  3.62598e-03
       H  4.85179e-05  4.44740e-03  7.78446e-04
       H  4.30462e-04  1.21003e-03 -4.43664e-03
       O  1.79471e-04 -4.59811e-03  3.39471e-03
       H -2.94735e-03  3.43621e-03 -2.12491e-03
       H  3.33453e-03  2.45868e-03 -1.93594e-03
       O  3.97789e-03 -2.45893e-03  3.58376e-03
       H -4.00510e-03 -1.59725e-03 -2.21196e-03
       H -1.12588e-03  4.24849e-03 -2.16824e-03
       O  3.66401e-03 -3.45712e-03  3.71624e-03
       H -3.84579e-03  2.46494e-03  1.04854e-03
       H -8.47606e-04  1.07628e-03 -4.83654e-03
       O  4.16933e-03  2.51630e-03  3.29899e-03
       H -4.28990e-03 -1.96148e-03  4.46278e-04
       H -7.99760e-04 -9.33012e-04 -4.59941e-03
       O  4.28308e-03  2.33639e-03  4.12168e-03
       H -4.12806e-04 -4.13155e-03 -1.40472e-03
       H -3.87662e-03  1.19820e-03 -2.31577e-03
       O -4.00153e-03 -2.59986e-03  3.44115e-03
       H  1.27722e-03  4.45579e-03 -2.06396e-03
       H  4.00184e-03 -1.71237e-03 -2.01217e-03
       O -4.59630e-03  2.28761e-03 -3.35775e-03
       H  3.68076e-04 -4.28511e-03  1.30456e-03
       H  4.35427e-03  9.75243e-04  2.24728e-03
       O  3.58168e-04  5.30869e-03 -2.97028e-03
       H -2.89797e-03 -3.43266e-03  2.29581e-03
       H  3.47693e-03 -2.32976e-03  1.36806e-03
       O -3.82445e-03 -2.44665e-03 -3.64707e-03
       H  3.67551e-03  2.35956e-03 -1.13857e-03
       H  1.55828e-03  7.86453e-04  4.85575e-03
       O -2.81542e-04  4.60478e-03  3.45642e-03
       H -3.30820e-03 -2.59299e-03 -1.96116e-03
       H  2.99199e-03 -3.37420e-03 -2.10351e-03
       O  4.21037e-03  2.98129e-03 -3.23419e-03
       H -1.32589e-03 -4.28606e-03  2.03946e-03
       H -3.93065e-03  1.86813e-03  1.48524e-03
       O  4.46521e-03 -3.01539e-03 -2.90518e-03
       H -3.87095e-03 -1.88405e-03  1.41820e-03
       H -1.39927e-03  4.32317e-03  2.28598e-03
       O -9.72524e-05  4.80215e-03 -3.36927e-03
       H  4.91706e-04 -4.66444e-03 -6.60637e-04
       H -3.04396e-04 -1.14642e-03  4.63205e-03
       O  1.81019e-04  4.80825e-03  3.43255e-03
       H -3.25840e-03 -3.29825e-03 -2.26073e-03
       H  3.53456e-03 -2.47756e-03 -2.11840e-03
       O -3.84094e-03 -2.50365e-03  3.64826e-03
       H  3.78019e-03  2.20523e-03  1.22726e-03
       H  1.57178e-03  9.75390e-04 -4.91478e-03
       O -3.95250e-03  3.56806e-03  3.23590e-03
       H  3.87672e-03 -2.92200e-03  3.31895e-04
       H  4.07139e-04 -4.32812e-04 -4.47905e-03
       O -4.49138e-03  2.27907e-03  4.02740e-03
       H  4.66305e-04 -4.20225e-03 -1.61957e-03
       H  3.84548e-03  1.54736e-03 -2.32629e-03
       O -3.34756e-06 -5.06141e-03 -3.11177e-03
       H -1.47450e-04  5.14461e-03  5.17634e-05
       H  9.99941e-05  3.32062e-04  4.50518e-03
       O -4.46640e-03 -2.45612e-03  3.15649e-03
       H  4.36396e-03  2.63145e-03  1.16083e-04
       H  2.92774e-04  2.61279e-05 -4.62030e-03
       O  3.89152e-03  3.14218e-03  3.57344e-03
       H -3.76280e-03 -2.15261e-03  7.91142e-04
       H -8.09726e-04 -1.04340e-03 -4.41290e-03
       O  3.66559e-03  2.14126e-03  4.43585e-03
       H -6.52949e-04 -4.28859e-03 -2.16433e-03
       H -4.03162e-03  1.58305e-03 -2.19531e-03
       O -1.03133e-03 -4.99197e-03 -3.71222e-03
       H  2.53042e-04  4.42460e-03 -1.06791e-03
       H  4.78127e-04  1.31445e-03  4.84870e-03
       O  1.75954e-04 -4.55350e-03 -3.62514e-03
       H -2.96682e-03  3.39800e-03  2.35419e-03
       H  3.35549e-03  2.36721e-03  2.01342e-03
       O -6.04107e-05  5.32102e-03 -3.11401e-03
       H -3.15492e-03 -3.15281e-03  1.44414e-03
       H  3.17282e-03 -2.61182e-03  2.16086e-03
       O  2.22316e-04  5.41672e-03 -3.77771e-03
       H -2.79044e-05 -4.74521e-03 -1.00612e-03
       H -3.19456e-05 -4.93586e-04  4.74335e-03
       O  4.62278e-03 -2.18625e-03  3.40174e-03
       H -4.42382e-03 -1.08632e-03 -2.29937e-03
       H -2.68536e-04  4.39213e-03 -1.43642e-03
       O  4.10460e-03  2.16383e-03 -3.62223e-03
       H -5.00398e-04 -3.88032e-03  2.14599e-03
       H -4.21203e-03  8.37329e-04  2.11399e-03
       O -4.54623e-03  2.24385e-03  3.20172e-03
       H  4.54635e-03 -2.59084e-03 -1.06908e-04
       H  3.23605e-04 -5.49172e-05 -4.53809e-03
       O -4.53538e-03 -2.83995e-03 -3.68273e-03
       H  4.02298e-03  2.34805e-03 -1.06932e-03
       H  4.44999e-04  3.90727e-04  4.79934e-03
       O  5.07107e-03  1.50631e-03 -3.36273e-03
       H -4.44834e-03 -2.06794e-03 -4.44587e-04
       H -6.14222e-04 -1.31435e-04  4.64655e-03
       O  4.24637e-03 -2.62370e-03  3.40394e-03
       H -3.84557e-03  2.66625e-03  7.70893e-04
       H -1.03109e-03  2.40605e-04 -4.68882e-03
       O -4.42245e-03 -2.67841e-03 -3.22148e-03
       H  1.21220e-03  4.34108e-03  1.58905e-03
       H  3.76954e-03 -1.53155e-03  2.11162e-03
       O -4.22295e-03  2.12141e-03  3.46068e-03
       H  3.93159e-04 -4.16823e-03 -2.02698e-03
       H  4.35725e-03  9.97008e-04 -2.19020e-03
       O  3.63309e-03  3.64015e-03 -3.58676e-03
       H -3.76022e-03 -2.45764e-03 -1.05317e-03
       H -8.23397e-04 -1.05634e-03  4.75408e-03
       O  4.93527e-03 -1.87444e-03  3.43095e-03
       H -4.42066e-03  1.95611e-03  2.61570e-04
       H -3.86783e-04  1.11696e-04 -4.47074e-03
       O -4.79943e-03 -2.21380e-03 -2.95625e-03
       H  3.08567e-04  4.12110e-03  1.39052e-03
       H  4.37864e-03 -7.92023e-04  2.17915e-03
       O -3.71228e-03  2.15421e-03  4.43912e-03
       H  7.72974e-04 -4.16456e-03 -2.26554e-03
       H  3.78552e-03  1.60372e-03 -2.11449e-03
       O  4.36823e-03 -2.95893e-03  2.98321e-03
       H -3.72304e-03 -1.61947e-03 -1.30906e-03
       H -1.52473e-03  3.92955e-03 -2.15974e-03
       O  2.50371e-05 -4.34999e-03 -4.34306e-03
       H -3.46339e-03  2.86282e-03  2.20201e-03
       H  3.43861e-03  2.57661e-03  2.18670e-03
       O -4.72294e-03  1.82834e-03  3.59555e-03
       H  3.71049e-03 -2.29561e-03  1.12284e-03
       H  1.39215e-03 -2.21070e-04 -4.73909e-03
       O -7.78643e-06  4.83391e-03 -3.42829e-03
       H  4.41083e-04 -4.62195e-03 -4.88556e-04
       H -2.95812e-04 -9.37742e-04  4.61794e-03
       O  1.18498e-03 -4.92457e-03 -3.56821e-03
       H -2.54462e-04  4.43249e-03 -8.47992e-04
       H -6.28688e-04  1.26101e-03  4.50193e-03
       O  2.27086e-05 -5.19604e-03 -3.24620e-03
       H -2.95841e-03  2.42802e-03  2.20282e-03
       H  2.94042e-03  3.14434e-03  1.38634e-03
       O  1.41854e-04  5.02965e-03 -3.96084e-03
       H -3.11070e-03 -2.51392e-03  2.22781e-03
       H  3.28777e-03 -2.58182e-03  1.64995e-03
       O  4.95699e-03 -1.43334e-03 -3.59704e-03
       H -3.87530e-03  2.04762e-03 -1.05344e-03
       H -1.31617e-03  2.27392e-04  4.72856e-03
       O -4.13427e-03 -2.59822e-03  4.27216e-03
       H  6.63172e-04  4.25583e-03 -2.38841e-03
       H  3.93771e-03 -1.84905e-03 -1.44854e-03
       O -4.20389e-03  2.25158e-03 -3.40722e-03
       H  3.73213e-04 -4.11056e-03  2.01651e-03
       H  4.48674e-03  8.72393e-04  2.20623e-03
       O  3.61527e-03 -2.12777e-03 -4.55481e-03
       H -3.83909e-03 -1.63711e-03  2.17832e-03
       H -7.10064e-04  4.19629e-03  2.47271e-03
       O  3.98742e-03 -2.38790e-03 -3.71261e-03
       H -3.72046e-03  2.27684e-03 -1.09265e-03
       H -1.23191e-03  8.40707e-04  4.64196e-03
       O  4.52010e-03 -2.37646e-03  3.92742e-03
       H -3.83732e-03 -1.54607e-03 -2.35808e-03
       H -4.01963e-04  4.22447e-03 -1.61614e-03
       O  1.01003e-03  5.02686e-03  3.68200e-03
       H -2.08261e-04 -4.46970e-03  1.08604e-03
       H -4.82827e-04 -1.28847e-03 -4.84503e-03
       O -3.85530e-03  3.30626e-03  3.65974e-03
       H  3.85478e-03 -2.26357e-03  9.86220e-04
       H  6.98556e-04 -9.64759e-04 -4.58365e-03
       O -4.61219e-03  2.62336e-03  2.97423e-03
       H  5.07797e-04 -3.97114e-03 -2.10381e-03
       H  4.45738e-03  1.04727e-03 -1.44189e-03
       O  4.59703e-03  2.18951e-03 -3.03475e-03
       H -4.51439e-03 -2.56780e-03 -1.51289e-05
       H -4.16274e-04 -5.90775e-05  4.57872e-03
       O  4.00626e-03 -3.32701e-03  3.36973e-03
       H -4.07642e-03  2.79460e-03  4.50572e-04
       H -4.51697e-04  3.61310e-04 -4.66750e-03
       O  4.10835e-03  2.38779e-03  3.68902e-03
       H -3.79148e-03 -2.16676e-03  1.08333e-03
       H -1.39140e-03 -7.83998e-04 -4.76733e-03
       O  1.17119e-04 -5.10599e-03  3.92388e-03
       H -3.23987e-03  2.64125e-03 -2.42785e-03
       H  3.58945e-03  2.43204e-03 -1.55752e-03
       O -1.23465e-03 -5.23511e-03 -3.36507e-03
       H  6.15864e-04  4.90384e-03 -3.95677e-04
       H  1.26211e-04  5.06249e-04  4.55942e-03
       O -4.92632e-03 -1.36758e-03  3.66656e-03
       H  3.91610e-03  2.23100e-03  1.01424e-03
       H  1.31849e-03  1.83471e-04 -4.71529e-03
       O  8.10295e-04 -5.30720e-03  3.40249e-03
       H -4.44647e-04  4.89345e-03  3.64678e-04
       H -9.82622e-05  3.91640e-04 -4.50132e-03
       O -1.53970e-04 -5.02269e-03  3.99965e-03
       H -3.34169e-03  2.40901e-03 -1.45728e-03
       H  3.03955e-03  2.64447e-03 -2.40736e-03
       O -4.59419e-03 -2.30797e-03  3.22030e-03
       H  3.31908e-04  3.96795e-03 -1.39220e-03
       H  4.14519e-03 -7.00229e-04 -2.26379e-03
       O -3.96116e-03 -3.27773e-03  3.73200e-03
       H  3.80982e-03  2.30250e-03  1.04328e-03
       H  7.28440e-04  1.05354e-03 -4.71499e-03
       O  5.45017e-05 -4.91062e-03  3.31605e-03
       H  3.63076e-04  4.73208e-03  5.43258e-04
       H -3.08362e-04  9.87360e-04 -4.65328e-03
       O  4.31330e-03  2.25771e-03  3.30543e-03
       H -4.41119e-04 -4.28627e-03 -2.06229e-03
       H -4.42434e-03  1.10592e-03 -2.21199e-03
       O -1.33155e-05  5.16608e-03  3.32335e-03
       H -3.22096e-03 -2.35462e-03 -2.08483e-03
       H  3.12439e-03 -3.19986e-03 -1.61391e-03
       O  3.96219e-03  2.47854e-03 -3.54897e-03
       H -1.13192e-03 -4.30124e-03  2.14616e-03
       H -3.98229e-03  1.57776e-03  2.14368e-03
       O -4.12347e-03 -2.59697e-03 -4.06959e-03
       H  8.93190e-04  3.99512e-03  2.35431e-03
       H  3.73119e-03 -1.76642e-03  1.42941e-03
       O -3.93329e-03 -3.31321e-03 -3.68030e-03
       H  3.86824e-03  2.28157e-03 -9.46612e-04
       H  6.61916e-04  9.63219e-04  4.65563e-03
       O -4.18672e-03  2.02868e-03 -3.55774e-03
       H  3.71466e-03 -2.10964e-03 -1.22981e-03
       H  1.68547e-03 -7.92031e-04  4.88607e-03
       O -9.11563e-05  5.08313e-03  3.00701e-03
       H  1.05248e-04 -5.09700e-03 -1.92597e-04
       H -2.39744e-05 -4.63759e-04 -4.40493e-03
       O  4.71674e-03 -2.65489e-03 -2.98058e-03
       H -4.33850e-03 -1.27422e-03  1.48829e-03
       H -6.05342e-04  4.09651e-03  2.17079e-03
       O  4.01287e-03  2.59137e-03  4.11976e-03
       H -7.79556e-04 -3.97650e-03 -2.37639e-03
       H -3.77944e-03  1.66539e-03 -1.48303e-03
       O -1.33688e-04  5.06509e-03  3.89116e-03
       H -3.47469e-03 -2.55171e-03 -1.51780e-03
       H  3.16824e-03 -2.62357e-03 -2.33172e-03
       O  4.43679e-03  2.98398e-03 -2.88154e-03
       H -1.30562e-03 -4.23272e-03  2.22790e-03
       H -3.79752e-03  1.86940e-03  1.44642e-03
       O  4.65363e-03  1.87941e-03  3.56386e-03
       H -3.78272e-03 -2.32688e-03  1.05330e-03
       H -1.30311e-03 -2.72657e-04 -4.70807e-03
       O  8.00155e-04  5.14921e-03 -3.33878e-03
       H -3.95502e-04 -4.81375e-03 -2.97048e-04
       H -5.47545e-05 -5.69222e-04  4.48112e-03
       O -3.72765e-03  3.45392e-03 -3.74099e-03
       H  3.69066e-03 -2.36869e-03 -7.96144e-04
       H  8.05794e-04 -1.03051e-03  4.59977e-03
       O -4.43606e-03  2.24746e-03 -4.02598e-03
       H  5.97368e-04 -4.29100e-03  1.39239e-03
       H  3.94571e-03  1.44756e-03  2.09009e-03
       O  8.59532e-05  5.05064e-03 -3.89565e-03
       H -3.20100e-03 -2.65481e-03  2.42244e-03
       H  3.50951e-03 -2.42529e-03  1.57620e-03
       O -4.73486e-03 -1.74885e-03 -3.68549e-03
       H  3.81328e-03  2.21907e-03 -1.01194e-03
       H  1.37626e-03  1.33288e-04  4.71174e-03
288
# CELL(abcABC):   25.55133    29.50414    27.81677    90.00000    90.00000    90.00000  Step:           2  Bead:       0 forces{atomic_unit}  cell{atomic_unit}
       O -2.57278e-03  1.87568e-03 -2.24344e-03
       H  2.95391e-03 -2.06972e-03 -9.97832e-04
       H  3.53268e-04 -3.91454e-05  3.78966e-03
       O  7.95856e-06 -3.43674e-03 -2.10321e-03
       H -2.94057e-03  1.74500e-03  1.39155e-03
       H  2.95147e-03  2.09484e-03  1.04173e-03
       O  3.13448e-03 -1.33944e-03 -2.11020e-03
       H -3.26493e-03 -1.14097e-03  1.68641e-03
       H  2.27498e-04  3.41482e-03  6.86336e-04
       O  2.61898e-03 -2.33452e-03 -2.17543e-03
       H -3.04211e-03  1.92901e-03 -8.85449e-04
       H  2.41057e-04  4.06594e-05  3.64487e-03
       O -3.14227e-03 -1.46438e-03  2.29548e-03
       H -3.01842e-04  3.55564e-03 -9.54179e-04
       H  3.28276e-03 -1.33682e-03 -1.49979e-03
       O -2.92125e-03  1.51087e-03 -2.31833e-03
       H -1.44392e-04 -3.52049e-03  1.46317e-03
       H  3.38185e-03  1.41302e-03  1.49379e-03
       O -3.25806e-04 -3.32067e-03  1.95061e-03
       H  9.17409e-05  4.01644e-03  4.49961e-04
       H  1.08269e-04 -2.17951e-04 -3.64195e-03
       O  2.68239e-03 -1.58333e-03 -2.53707e-03
       H -2.85182e-03  1.79043e-03 -1.48069e-03
       H -5.94586e-04  3.43166e-04  3.99036e-03
       O  2.60126e-03  1.94479e-03 -2.47427e-03
       H -2.90722e-03 -1.75213e-03 -1.32996e-03
       H -2.20577e-04 -5.05360e-04  3.81650e-03
       O  7.31641e-04  3.46058e-03  2.28424e-03
       H -3.64240e-04 -3.71306e-03  9.90278e-04
       H -1.38258e-05  1.96703e-04 -3.76190e-03
       O -2.93028e-03 -1.94721e-03 -1.93896e-03
       H  5.75039e-04  3.45651e-03  1.52675e-03
       H  2.92906e-03 -1.84849e-03  8.37709e-04
       O  1.18176e-05 -2.74470e-03  3.10319e-03
       H -2.99515e-03  1.82100e-03 -1.48437e-03
       H  3.05265e-03  1.80225e-03 -1.48559e-03
       O -2.96335e-03  1.68945e-03 -2.05904e-03
       H  3.39611e-03 -1.90461e-03 -6.16373e-04