2304
# CELL(abcABC):   51.10267    59.00829    55.63354    90.00000    90.00000    90.00000  Step:           0  Bead:       0 forces{atomic_unit}  cell{atomic_unit}
       O  1.30051e-02 -7.57650e-03  8.84188e-03
       H  2.68258e-03 -1.36483e-03 -1.90694e-02
       H -1.45423e-02  8.37184e-03  1.01703e-02
       O  6.27684e-04  1.39199e-02  9.70993e-03
       H -1.79328e-02 -6.22803e-03 -4.67413e-03
       H  1.76704e-02 -6.84856e-03 -4.49144e-03
       O -1.15477e-02  6.66174e-03  1.04318e-02
       H -3.30210e-03 -1.83990e-02 -5.29195e-03
       H  1.48312e-02  1.18631e-02 -4.60552e-03
       O  1.18907e-04 -1.38691e-02  9.67818e-03
       H  3.70864e-04 -3.56730e-03 -1.90485e-02
       H -3.52030e-04  1.69079e-02  9.77664e-03
       O -1.22771e-02  5.81465e-03 -1.01587e-02
       H -2.86821e-03 -1.85842e-02  4.94967e-03
       H  1.45707e-02  1.22791e-02  4.81875e-03
       O -1.34001e-04  1.46830e-02  8.94703e-03
       H -1.77016e-02 -6.95714e-03 -4.59593e-03
       H  1.76663e-02 -6.83601e-03 -4.44924e-03
       O  1.17822e-02 -7.12679e-03 -9.63684e-03
       H  2.98620e-03 -1.99038e-03  1.89697e-02
       H -1.44144e-02  8.69723e-03 -9.77714e-03
       O -7.97366e-04 -1.31177e-02  1.00066e-02
       H  5.40601e-04 -3.71174e-03 -1.91468e-02
       H  8.52231e-05  1.68640e-02  9.62527e-03
       O  2.76752e-05  1.48232e-02  9.15025e-03
       H -7.34262e-05  3.04444e-03 -1.90913e-02
       H -1.40125e-06 -1.70059e-02  9.76252e-03
       O  1.16510e-02 -6.63073e-03  1.04452e-02
       H -1.43543e-02 -1.21523e-02 -5.29300e-03
       H  2.82115e-03  1.87210e-02 -4.56248e-03
       O  1.13913e-02 -6.22784e-03 -1.07074e-02
       H  3.37224e-03 -2.10629e-03  1.91283e-02
       H -1.46249e-02  8.48538e-03 -9.38986e-03
       O  1.22574e-02  5.80725e-03  1.02164e-02
       H  2.85362e-03  2.28775e-03 -1.92481e-02
       H -1.47599e-02 -8.40937e-03  9.61530e-03
       O -1.27735e-02 -7.04381e-03  1.02561e-02
       H -2.85582e-03 -1.51108e-03 -1.90507e-02
       H  1.50560e-02  8.21520e-03  9.32719e-03
       O -1.16455e-02  6.76599e-03 -1.09581e-02
       H -3.41356e-03  1.70841e-03  1.90790e-02
       H  1.47929e-02 -8.49652e-03 -9.34844e-03
       O -1.10651e-03  1.35052e-02 -1.03677e-02
       H  6.52329e-04  3.67934e-03  1.92779e-02
       H  2.52334e-04 -1.71081e-02 -9.47881e-03
       O  1.86924e-05  1.39876e-02 -1.02516e-02
       H -1.74989e-02 -7.05881e-03  4.64691e-03
       H  1.76674e-02 -6.60310e-03  5.55215e-03
       O -1.03647e-03  1.31430e-02  9.97052e-03
       H  4.53912e-04  3.83850e-03 -1.91548e-02
       H  1.41957e-04 -1.69780e-02  9.69785e-03
       O  1.20350e-02  7.80105e-03 -9.34768e-03
       H  2.79363e-03  1.69211e-03  1.92638e-02
       H -1.43968e-02 -8.75199e-03 -9.85760e-03
       O  1.16908e-02  6.85032e-03  1.00065e-02
       H -1.48095e-02  1.17853e-02 -4.62019e-03
       H  3.25383e-03 -1.84654e-02 -5.20342e-03
       O  1.14548e-02 -7.94902e-03 -1.03211e-02
       H -1.46124e-02 -1.15247e-02  5.25301e-03
       H  3.22935e-03  1.87287e-02  4.98498e-03
       O  1.25516e-02  7.03853e-03 -1.05204e-02
       H -1.46298e-02  1.18748e-02  5.57182e-03
       H  2.30658e-03 -1.88360e-02  4.74481e-03
       O  1.21706e-02  5.72000e-03 -1.04747e-02
       H  2.94397e-03  2.41645e-03  1.92903e-02
       H -1.48113e-02 -8.23853e-03 -9.45249e-03
       O  1.11121e-02 -7.53667e-03 -1.02844e-02
       H  3.42036e-03 -1.41988e-03  1.90535e-02
       H -1.47894e-02  8.70027e-03 -9.49097e-03
       O  1.18607e-02 -7.71956e-03 -9.41224e-03
       H -1.48160e-02 -1.16519e-02  5.33498e-03
       H  2.78021e-03  1.88051e-02  4.42267e-03
       O  9.67240e-04  1.37625e-02  9.06511e-03
       H -5.16545e-05  3.25727e-03 -1.91798e-02
       H -4.20779e-04 -1.67544e-02  9.90883e-03
       O  1.07074e-03  1.41765e-02  1.05341e-02
       H -1.75758e-02 -6.72379e-03 -4.87129e-03
       H  1.72607e-02 -6.97701e-03 -5.30826e-03
       O -1.40882e-04 -1.33840e-02  1.04139e-02
       H -1.75478e-02  6.88584e-03 -4.54436e-03
       H  1.77848e-02  6.32767e-03 -5.29609e-03
       O -1.30682e-02  7.90377e-03  9.47249e-03
       H -2.66952e-03  1.37512e-03 -1.91992e-02
       H  1.46920e-02 -8.54424e-03  9.67795e-03
       O -1.13946e-02  8.25934e-03 -1.03580e-02
       H -3.18215e-03 -1.87061e-02  4.81378e-03
       H  1.46056e-02  1.15373e-02  5.40927e-03
       O -1.22112e-02 -7.22270e-03  8.96450e-03
       H  1.48303e-02 -1.20265e-02 -4.39509e-03
       H -3.26380e-03  1.88413e-02 -4.42587e-03
       O  1.12430e-02  8.09727e-03  1.04624e-02
       H -1.48311e-02  1.15245e-02 -5.25292e-03
       H  3.28742e-03 -1.86812e-02 -4.77215e-03
       O  1.24359e-02  6.18616e-03  9.20492e-03
       H  2.79511e-03  1.84182e-03 -1.92956e-02
       H -1.49175e-02 -8.04257e-03  9.87415e-03
       O -1.27344e-02  5.74960e-03 -1.02294e-02
       H -2.74469e-03 -1.85390e-02  5.36018e-03
       H  1.46323e-02  1.21490e-02  4.57697e-03
       O -1.19235e-02 -7.80880e-03  1.01575e-02
       H  1.48238e-02 -1.17146e-02 -4.75319e-03
       H -3.44565e-03  1.85418e-02 -4.72564e-03
       O  1.09894e-02 -7.95540e-03 -1.03314e-02
       H  3.54956e-03 -1.24350e-03  1.92677e-02
       H -1.46151e-02  8.73337e-03 -9.54442e-03
       O  1.25021e-02  5.79992e-03  9.06136e-03
       H  2.82990e-03  1.85161e-03 -1.91776e-02
       H -1.48306e-02 -7.95227e-03  9.92216e-03
       O  1.31227e-02 -7.24315e-03  8.95422e-03
       H  2.57725e-03 -1.79569e-03 -1.91385e-02
       H -1.45368e-02  8.32574e-03  1.00880e-02
       O -1.02720e-04 -1.41407e-02 -1.01997e-02
       H  5.17259e-04 -3.43461e-03  1.91366e-02
       H -3.41294e-04  1.70561e-02 -9.39136e-03
       O -1.18590e-02  6.87057e-03  1.04337e-02
       H -2.68108e-03 -1.85772e-02 -4.56200e-03
       H  1.44874e-02  1.18538e-02 -5.38668e-03
       O -6.66748e-04  1.39158e-02 -9.89970e-03
       H -1.75820e-02 -6.64025e-03  4.66196e-03
       H  1.77839e-02 -6.40472e-03  4.66795e-03
       O  1.39939e-04 -1.42539e-02 -8.95484e-03
       H -1.77923e-02  6.85927e-03  4.31541e-03
       H  1.76963e-02  6.81053e-03  4.45529e-03
       O -1.16866e-02  7.78825e-03 -9.24080e-03
       H -2.87823e-03  1.59330e-03  1.90694e-02
       H  1.44424e-02 -8.95875e-03 -9.80143e-03
       O  1.22432e-02  7.83003e-03  9.91550e-03
       H -1.48204e-02  1.17503e-02 -4.73728e-03
       H  3.18310e-03 -1.87012e-02 -4.59355e-03
       O  1.21876e-02 -7.65600e-03 -9.86264e-03
       H -1.47726e-02 -1.17669e-02  4.47032e-03
       H  3.34023e-03  1.87367e-02  4.80971e-03
       O -1.21854e-02  7.31388e-03 -1.05491e-02
       H -3.08860e-03 -1.84578e-02  5.42612e-03
       H  1.49250e-02  1.13931e-02  4.74745e-03
       O -1.25783e-02 -7.12586e-03  8.87901e-03
       H  1.47651e-02 -1.21096e-02 -4.54677e-03
       H -3.08692e-03  1.87659e-02 -4.48668e-03
       O  1.13449e-02 -6.53690e-03 -9.34162e-03
       H  3.05315e-03 -1.69103e-03  1.92904e-02
       H -1.46672e-02  8.49294e-03 -9.77834e-03
       O  1.07427e-02  7.37782e-03  1.02252e-02
       H  3.50068e-03  1.50304e-03 -1.92796e-02
       H -1.46090e-02 -8.54493e-03  9.51764e-03
       O  1.32600e-03 -1.37194e-02 -1.06120e-02
       H -1.78092e-02  6.50465e-03  4.78258e-03
       H  1.74425e-02  7.06467e-03  5.37337e-03
       O -1.14198e-03 -1.38731e-02 -9.17564e-03
       H  4.98870e-05 -3.38976e-03  1.93019e-02
       H  7.55949e-04  1.69253e-02 -9.87615e-03
       O  1.26312e-02  5.77114e-03  1.04095e-02
       H -1.45182e-02  1.20921e-02 -4.83495e-03
       H  2.69414e-03 -1.84792e-02 -5.52133e-03
       O -7.75480e-04  1.39168e-02 -9.92303e-03
       H -1.75656e-02 -6.80082e-03  4.54959e-03
       H  1.79200e-02 -6.21104e-03  4.77485e-03
       O -1.26142e-02 -6.78117e-03  9.91262e-03
       H -2.63152e-03 -2.12035e-03 -1.90458e-02
       H  1.44898e-02  8.73629e-03  9.72575e-03
       O -4.91863e-04  1.37248e-02  9.19132e-03
       H -1.76623e-02 -6.80550e-03 -5.02565e-03
       H  1.78228e-02 -6.85583e-03 -4.55290e-03
       O  1.19787e-02  7.92108e-03  9.82983e-03
       H -1.49047e-02  1.16795e-02 -4.68568e-03
       H  3.43122e-03 -1.85848e-02 -4.54616e-03
       O  1.27995e-02  6.44341e-03  9.17158e-03
       H  2.76867e-03  1.62434e-03 -1.91213e-02
       H -1.48254e-02 -8.10462e-03  9.88195e-03
       O  4.25930e-04  1.38131e-02  9.90112e-03
       H -2.33127e-04  3.33977e-03 -1.92470e-02
       H -2.60682e-05 -1.72145e-02  9.53210e-03
       O  6.10724e-04  1.44552e-02  9.99290e-03
       H -1.79439e-02 -6.51052e-03 -4.89034e-03
       H  1.75475e-02 -6.95532e-03 -4.65993e-03
       O -1.20724e-02  7.13480e-03  9.03598e-03
       H -3.05479e-03 -1.88784e-02 -4.36958e-03
       H  1.46342e-02  1.19249e-02 -4.29361e-03
       O  1.14226e-03 -1.38182e-02  9.02733e-03
       H -2.34256e-05 -3.41569e-03 -1.92079e-02
       H -6.76742e-04  1.69091e-02  9.95455e-03
       O -1.22123e-02  6.63546e-03 -8.90924e-03
       H -2.85762e-03 -1.87951e-02  4.74394e-03
       H  1.49341e-02  1.18729e-02  4.38124e-03
       O -1.15775e-02  6.79643e-03 -9.73766e-03
       H -3.00632e-03  1.66457e-03  1.92844e-02
       H  1.49704e-02 -8.61668e-03 -9.56398e-03
       O  1.28278e-02 -7.02897e-03 -1.04462e-02
       H  2.56432e-03 -2.10914e-03  1.91791e-02
       H -1.47041e-02  8.80022e-03 -9.34825e-03
       O  1.27338e-02 -7.29311e-03 -9.14186e-03
       H -1.47473e-02 -1.19263e-02  4.50885e-03
       H  2.83843e-03  1.88836e-02  4.73263e-03
       O -1.20395e-02 -6.07006e-03  1.04167e-02
       H -2.93978e-03 -2.15483e-03 -1.92481e-02
       H  1.47160e-02  8.45096e-03  9.49291e-03
       O -1.12290e-02  7.60165e-03 -1.00793e-02
       H -3.54463e-03  1.34752e-03  1.91175e-02
       H  1.47033e-02 -8.60356e-03 -9.66753e-03
       O  1.27766e-02  6.59408e-03  9.89911e-03
       H -1.46505e-02  1.22859e-02 -4.84647e-03
       H  2.74972e-03 -1.85763e-02 -4.43596e-03
       O  5.38436e-04  1.37625e-02 -9.12504e-03
       H -1.77899e-02 -6.95936e-03  4.22919e-03
       H  1.76941e-02 -6.80015e-03  5.09832e-03
       O -1.28420e-02  6.63734e-03 -9.98557e-03
       H -2.55213e-03 -1.88432e-02  4.60750e-03
       H  1.44985e-02  1.20787e-02  4.70097e-03
       O  1.15474e-03  1.36237e-02  1.00772e-02
       H -1.80856e-02 -6.37098e-03 -4.67680e-03
       H  1.76594e-02 -6.87499e-03 -5.01264e-03
       O -8.10385e-05  1.39975e-02 -1.00349e-02
       H -3.89135e-04  3.51203e-03  1.90991e-02
       H  4.67584e-04 -1.69522e-02 -9.62376e-03
       O -1.26168e-02  6.77068e-03  9.33359e-03
       H -2.81294e-03  1.54691e-03 -1.92394e-02
       H  1.49467e-02 -8.08272e-03  9.81309e-03
       O -1.18565e-02  7.37697e-03 -8.83956e-03
       H -2.96141e-03 -1.88379e-02  4.48561e-03
       H  1.47850e-02  1.18668e-02  4.91756e-03
       O -1.24269e-02 -7.86019e-03  1.03614e-02
       H  1.49364e-02 -1.16416e-02 -4.82177e-03
       H -3.09533e-03  1.87334e-02 -5.01349e-03
       O  1.24508e-02  7.18815e-03  8.76990e-03
       H -1.49243e-02  1.20249e-02 -4.22171e-03
       H  3.00374e-03 -1.89302e-02 -4.45247e-03
       O  1.17124e-02  7.82505e-03  9.40493e-03
       H  2.87280e-03  1.46202e-03 -1.92120e-02
       H -1.46179e-02 -8.95994e-03  9.59180e-03
       O -1.14109e-02 -7.96473e-03  1.07624e-02
       H -3.30641e-03 -1.27573e-03 -1.92382e-02
       H  1.48692e-02  8.82468e-03  9.17781e-03
       O -1.25084e-02  6.05588e-03 -9.06246e-03
       H -2.87919e-03  1.76903e-03  1.92148e-02
       H  1.48501e-02 -8.02844e-03 -9.95819e-03
       O  1.27551e-02  7.09907e-03  8.96748e-03
       H -1.48908e-02  1.20066e-02 -4.27988e-03
       H  2.88219e-03 -1.87686e-02 -4.51478e-03
       O  1.18827e-02 -7.77632e-03 -1.01830e-02
       H -1.47599e-02 -1.17686e-02  4.61814e-03
       H  3.44974e-03  1.85962e-02  4.75940e-03
       O  1.19459e-02  6.31143e-03 -9.47035e-03
       H -1.48193e-02  1.19088e-02  4.35586e-03
       H  2.93854e-03 -1.86689e-02  4.97534e-03
       O  1.16578e-02  6.69895e-03 -1.10096e-02
       H  3.20148e-03  1.85841e-03  1.89817e-02
       H -1.49079e-02 -8.58020e-03 -9.21440e-03
       O -1.29000e-02 -7.43773e-03 -9.02559e-03
       H -2.57935e-03 -1.45349e-03  1.90426e-02
       H  1.46357e-02  8.38433e-03 -9.80013e-03
       O -1.22413e-02 -7.04303e-03 -8.74285e-03
       H  1.46755e-02 -1.21051e-02  4.40837e-03
       H -2.97050e-03  1.87738e-02  4.18494e-03
       O  8.76548e-04  1.36047e-02  1.01811e-02
       H -3.67555e-04  3.62143e-03 -1.91448e-02
       H -1.00627e-04 -1.70786e-02  9.64335e-03
       O -1.08605e-02  7.51005e-03 -1.00520e-02
       H -3.52257e-03  1.47526e-03  1.91414e-02
       H  1.46546e-02 -8.70860e-03 -9.59947e-03
       O  7.15937e-04 -1.42814e-02  9.96143e-03
       H -1.77573e-02  6.35528e-03 -4.62264e-03
       H  1.76446e-02  6.99132e-03 -4.71059e-03
       O  1.25991e-02 -6.39276e-03 -9.61447e-03
       H -1.44110e-02 -1.23644e-02  4.66059e-03
       H  2.99999e-03  1.86435e-02  4.59464e-03
       O -1.20942e-02  6.89681e-03 -1.03255e-02
       H -2.70052e-03 -1.87938e-02  4.90611e-03
       H  1.43740e-02  1.19160e-02  5.35486e-03
       O -1.11101e-02 -7.77574e-03  1.00700e-02
       H  1.45719e-02 -1.18111e-02 -5.19634e-03
       H -3.29589e-03  1.87842e-02 -4.70679e-03
       O -1.28055e-03 -1.37296e-02  1.05209e-02
       H -1.73859e-02  7.03301e-03 -5.30763e-03
       H  1.77351e-02  6.57283e-03 -4.79586e-03
       O -1.20360e-02  7.51137e-03  9.19659e-03
       H -2.94507e-03  1.72159e-03 -1.91924e-02
       H  1.43439e-02 -8.76292e-03  1.00186e-02
       O  8.94087e-05 -1.43191e-02 -1.05598e-02
       H -1.74611e-02  6.67882e-03  5.42466e-03
       H  1.74201e-02  7.27738e-03  4.84601e-03
       O  5.78700e-04 -1.39193e-02 -8.95405e-03
       H  7.10355e-05 -3.36602e-03  1.91169e-02
       H -4.95761e-04  1.70214e-02 -9.97566e-03
       O -1.28683e-02  6.54730e-03  9.97459e-03
       H -2.65229e-03 -1.87396e-02 -4.73331e-03
       H  1.43577e-02  1.21402e-02 -4.81109e-03
       O -6.18479e-04  1.39260e-02 -9.83049e-03
       H -1.77303e-02 -6.71165e-03  4.71371e-03
       H  1.79384e-02 -6.48158e-03  4.55281e-03
       O -1.13183e-02 -6.71054e-03  1.07255e-02
       H -3.43402e-03 -1.95021e-03 -1.91068e-02
       H  1.47861e-02  8.59858e-03  9.41216e-03
       O -9.99121e-05 -1.41271e-02 -9.80746e-03
       H -2.10579e-04 -3.53984e-03  1.90549e-02
       H  3.87267e-04  1.67861e-02 -9.82569e-03
       O -1.22566e-02 -7.74278e-03 -9.65211e-03
       H -2.68560e-03 -1.73302e-03  1.92111e-02
       H  1.46343e-02  8.98566e-03 -9.67046e-03
       O -1.25142e-02 -6.72263e-03 -9.28092e-03
       H  1.50173e-02 -1.17763e-02  4.60022e-03
       H -2.83662e-03  1.85314e-02  5.15148e-03
       O  1.17596e-02 -6.59744e-03  1.10612e-02
       H  3.26408e-03 -2.14707e-03 -1.91324e-02
       H -1.48219e-02  8.51503e-03  9.33103e-03
       O  1.34765e-04 -1.41034e-02 -9.86065e-03
       H  1.20032e-04 -3.43088e-03  1.90910e-02
       H -4.06227e-04  1.68162e-02 -9.66294e-03
       O  1.23019e-03 -1.36080e-02  9.84308e-03
       H -1.80000e-02  6.40418e-03 -4.68052e-03
       H  1.74629e-02  6.82467e-03 -5.09991e-03
       O  1.24524e-02 -5.82279e-03 -1.01994e-02
       H -1.45019e-02 -1.22003e-02  4.84556e-03
       H  2.68535e-03  1.85993e-02  5.18498e-03
       O -1.19071e-02 -5.77053e-03  9.96121e-03
       H -3.12080e-03 -2.21888e-03 -1.91708e-02
       H  1.48392e-02  8.44499e-03  9.74304e-03
       O -1.19924e-02  6.67837e-03 -1.12773e-02
       H -3.11902e-03  1.89634e-03  1.90317e-02
       H  1.48652e-02 -8.53212e-03 -9.14448e-03
       O -1.23685e-03 -1.36413e-02  1.00401e-02
       H -1.73195e-02  6.82583e-03 -5.16383e-03
       H  1.78602e-02  6.70014e-03 -4.65402e-03
       O -1.19734e-02 -6.85327e-03 -1.03403e-02
       H  1.44896e-02 -1.19299e-02  5.33123e-03
       H -2.69363e-03  1.85713e-02  4.54294e-03
       O -3.85067e-04  1.43034e-02  9.86804e-03
       H  5.65436e-04  3.37958e-03 -1.90751e-02
       H -2.90021e-04 -1.68561e-02  9.78921e-03
       O -1.21876e-02 -7.06761e-03  9.09643e-03
       H  1.48382e-02 -1.20662e-02 -4.39222e-03
       H -3.15981e-03  1.87965e-02 -4.29147e-03
       O  1.28523e-02 -5.99760e-03 -9.27329e-03
       H  2.83881e-03 -1.81881e-03  1.91812e-02
       H -1.48361e-02  7.95283e-03 -9.91760e-03
       O  1.16741e-02  6.64443e-03  1.11058e-02
       H  3.22472e-03  1.85970e-03 -1.90823e-02
       H -1.48879e-02 -8.56336e-03  9.08844e-03
       O  1.30552e-02 -7.51445e-03  8.90198e-03
       H  2.66768e-03 -1.33768e-03 -1.90778e-02
       H -1.46244e-02  8.38054e-03  1.01124e-02
       O  5.73731e-05  1.35911e-02  9.98873e-03
       H -1.77509e-02 -6.29122e-03 -5.30167e-03
       H  1.76661e-02 -7.09172e-03 -4.43458e-03
       O  1.76482e-04  1.38464e-02 -9.53634e-03
       H  4.75044e-04  3.52657e-03  1.91036e-02
       H -4.29731e-04 -1.68078e-02 -9.87321e-03
       O  1.10669e-02  7.85547e-03  1.03741e-02
       H  3.45184e-03  1.25999e-03 -1.91642e-02
       H -1.46437e-02 -8.68942e-03  9.48142e-03
       O -1.21310e-02  5.72409e-03 -1.02509e-02
       H -2.92606e-03 -1.85406e-02  5.15329e-03
       H  1.43332e-02  1.22725e-02  4.75686e-03
       O -1.73350e-04  1.46683e-02  9.04423e-03
       H -1.76958e-02 -7.01896e-03 -4.71822e-03
       H  1.76964e-02 -6.80360e-03 -4.48413e-03
       O  1.20167e-02  6.77434e-03  1.05127e-02
       H -1.42971e-02  1.20004e-02 -5.34356e-03
       H  2.57957e-03 -1.87923e-02 -4.76859e-03
       O -1.10241e-03 -1.38463e-02  9.07306e-03
       H  1.93685e-04 -3.35231e-03 -1.91899e-02
       H  5.00100e-04  1.68549e-02  9.96960e-03
       O  1.81785e-04  1.51933e-02  9.43852e-03
       H -1.50830e-04  2.96992e-03 -1.91539e-02
       H  1.38756e-05 -1.69971e-02  9.69343e-03
       O  1.27997e-02 -6.48909e-03  1.02352e-02
       H -1.43779e-02 -1.22231e-02 -4.76203e-03
       H  2.69121e-03  1.87800e-02 -4.76641e-03
       O -1.12894e-02 -6.37696e-03 -1.08646e-02
       H -3.48912e-03 -1.96575e-03  1.91255e-02
       H  1.46554e-02  8.43080e-03 -9.34688e-03
       O -1.08200e-02  7.52491e-03  9.88872e-03
       H -3.49474e-03  1.50410e-03 -1.91831e-02
       H  1.46405e-02 -8.64416e-03  9.74138e-03
       O  1.12385e-02 -7.43669e-03  1.03258e-02
       H  3.34320e-03 -1.50233e-03 -1.91500e-02
       H -1.47171e-02  8.59127e-03  9.52203e-03
       O -1.11094e-03 -1.35873e-02 -1.02256e-02
       H  4.90405e-04 -3.68250e-03  1.92236e-02
       H  1.24839e-04  1.69819e-02 -9.65843e-03
       O -1.15743e-02  7.73133e-03  1.01337e-02
       H -3.14250e-03 -1.86608e-02 -4.89207e-03
       H  1.46404e-02  1.16400e-02 -5.03936e-03
       O -1.20229e-02 -6.87270e-03 -1.03323e-02
       H  1.47276e-02 -1.16413e-02  4.68654e-03
       H -3.13470e-03  1.84304e-02  5.54422e-03
       O  1.24377e-02  5.86384e-03 -1.04824e-02
       H -1.44486e-02  1.20330e-02  4.81105e-03
       H  2.53362e-03 -1.86111e-02  5.22139e-03
       O  1.46157e-04  1.38854e-02  1.03275e-02
       H -1.75082e-02 -6.96734e-03 -4.65513e-03
       H  1.75234e-02 -6.49495e-03 -5.61830e-03
       O -1.17025e-02 -6.97180e-03 -9.55703e-03
       H -3.07779e-03 -1.57352e-03  1.93320e-02
       H  1.47077e-02  8.59734e-03 -9.76462e-03
       O -1.11034e-02  7.64707e-03  1.04020e-02
       H -3.52617e-03  1.21071e-03 -1.92752e-02
       H  1.45827e-02 -8.60807e-03  9.47368e-03
       O  1.20625e-02  6.87742e-03 -1.03694e-02
       H -1.44251e-02  1.20177e-02  5.49932e-03
       H  2.70610e-03 -1.86198e-02  4.69924e-03
       O  1.25202e-02  6.13133e-03 -8.98286e-03
       H  3.00131e-03  1.65641e-03  1.90900e-02
       H -1.50462e-02 -8.00722e-03 -1.00353e-02
       O -1.21170e-02  7.73366e-03  1.01572e-02
       H -3.12876e-03 -1.87826e-02 -4.84762e-03
       H  1.46934e-02  1.16949e-02 -4.55221e-03
       O -1.28107e-02 -6.65369e-03 -9.73739e-03
       H  1.46420e-02 -1.21413e-02  4.52669e-03
       H -2.80728e-03  1.88492e-02  4.66989e-03
       O -1.16765e-02  7.20634e-03 -9.30928e-03
       H -2.91254e-03 -1.87901e-02  4.47289e-03
       H  1.46311e-02  1.18273e-02  5.01202e-03
       O -1.17261e-02 -6.92218e-03  9.84881e-03
       H  1.48024e-02 -1.18516e-02 -4.59575e-03
       H -3.44010e-03  1.85964e-02 -5.14973e-03
       O -1.15659e-02 -7.11699e-03 -9.57475e-03
       H -3.08810e-03 -1.69392e-03  1.93090e-02
       H  1.47639e-02  8.63252e-03 -9.79543e-03
       O -9.84586e-05 -1.34572e-02  1.09408e-02
       H  4.48495e-05 -3.74398e-03 -1.90573e-02
       H  1.02654e-04  1.69691e-02  9.26745e-03
       O  8.91379e-04 -1.39611e-02 -9.86282e-03
       H -1.81042e-02  6.39410e-03  4.56154e-03
       H  1.76256e-02  6.89186e-03  4.50945e-03
       O  1.29976e-02  7.42889e-03 -8.99289e-03
       H  2.59076e-03  1.69337e-03  1.90825e-02
       H -1.44774e-02 -8.46743e-03 -1.00051e-02
       O  1.25700e-02 -5.86027e-03 -1.03429e-02
       H  2.74247e-03 -2.31119e-03  1.91196e-02
       H -1.50746e-02  8.39312e-03 -9.49862e-03
       O  1.24757e-02 -7.58612e-03 -9.54614e-03
       H -1.49644e-02 -1.16204e-02  5.20707e-03
       H  2.37249e-03  1.88374e-02  4.54156e-03
       O -1.19165e-02  6.95353e-03 -1.04745e-02
       H -2.80863e-03 -1.86981e-02  4.66027e-03
       H  1.45908e-02  1.19374e-02  5.33653e-03
       O -1.26578e-02  6.53769e-03 -9.36162e-03
       H -2.77053e-03  1.76161e-03  1.92808e-02
       H  1.49237e-02 -8.03458e-03 -9.85292e-03
       O  1.17523e-02 -7.57261e-03 -8.90228e-03
       H  2.88398e-03 -1.60188e-03  1.91720e-02
       H -1.44022e-02  8.84975e-03 -9.99551e-03
       O  3.72362e-04  1.35289e-02 -9.36608e-03
       H -1.77232e-02 -6.96688e-03  4.32388e-03
       H  1.77552e-02 -6.70369e-03  4.95238e-03
       O  1.23426e-02  6.30557e-03 -9.89791e-03
       H -1.44503e-02  1.23349e-02  4.59106e-03
       H  2.87438e-03 -1.87209e-02  4.48185e-03
       O  9.72101e-05 -1.48612e-02 -9.04362e-03
       H -1.01838e-04 -2.96095e-03  1.91437e-02
       H -4.09861e-05  1.68432e-02 -9.81125e-03
       O -9.81247e-04  1.34206e-02 -1.01722e-02
       H  5.15189e-04  3.51039e-03  1.90299e-02
       H  2.27972e-04 -1.71792e-02 -9.43854e-03
       O  8.92641e-05  1.44941e-02 -9.16021e-03
       H -1.77232e-02 -6.80648e-03  4.50413e-03
       H  1.77948e-02 -6.88708e-03  4.68692e-03
       O  6.32923e-05 -1.43554e-02 -8.42247e-03
       H -1.79434e-02  6.77499e-03  4.21699e-03
       H  1.78587e-02  6.77010e-03  4.23288e-03
       O -1.25778e-02 -6.56378e-03  9.62238e-03
       H  1.44097e-02 -1.23775e-02 -4.76539e-03
       H -2.98376e-03  1.87909e-02 -4.44409e-03
       O -9.07185e-05  1.33810e-02 -1.11350e-02
       H  1.58322e-04  3.84643e-03  1.90030e-02
       H -2.62466e-05 -1.72820e-02 -9.09022e-03
       O  1.23313e-02  6.23094e-03  8.84933e-03
       H  2.95659e-03  1.86398e-03 -1.91277e-02
       H -1.47434e-02 -7.98091e-03  1.01046e-02
       O  4.78413e-04 -1.38652e-02 -1.00092e-02
       H -1.77613e-02  6.42223e-03  4.66078e-03
       H  1.76969e-02  6.83966e-03  4.55920e-03
       O  1.16541e-02  7.57632e-03 -9.06819e-03
       H  2.99921e-03  1.59381e-03  1.91962e-02
       H -1.44230e-02 -8.88578e-03 -9.93375e-03
       O -1.11604e-02  7.80486e-03  1.02123e-02
       H -3.25374e-03 -1.86074e-02 -4.72076e-03
       H  1.46984e-02  1.16353e-02 -5.21344e-03
       O -1.21373e-02 -7.59355e-03 -9.80628e-03
       H  1.46906e-02 -1.18181e-02  4.59069e-03
       H -3.24419e-03  1.87531e-02  4.79793e-03
       O -8.67996e-04  1.34670e-02  1.03241e-02
       H  2.55383e-04  3.63829e-03 -1.91718e-02
       H  2.85679e-04 -1.70513e-02  9.43546e-03
       O  1.12066e-02  6.63337e-03 -1.08720e-02
       H  3.41036e-03  2.01579e-03  1.91212e-02
       H -1.46674e-02 -8.55239e-03 -9.34804e-03
       O -1.14975e-02 -8.05303e-03 -1.05391e-02
       H -3.21311e-03 -1.20021e-03  1.90940e-02
       H  1.49133e-02  8.82745e-03 -9.19267e-03
       O -1.24715e-02 -7.31236e-03 -8.75025e-03
       H  1.47174e-02 -1.19709e-02  4.37212e-03
       H -3.08122e-03  1.88069e-02  4.49274e-03
       O -2.20153e-04  1.35720e-02  9.39517e-03
       H  2.65786e-04  3.54213e-03 -1.92098e-02
       H  1.05900e-04 -1.70517e-02  9.88164e-03
       O  7.68166e-04  1.44741e-02  9.86082e-03
       H -1.78002e-02 -6.39218e-03 -4.74378e-03
       H  1.76709e-02 -7.03398e-03 -4.67875e-03
       O  2.07253e-04 -1.42201e-02  1.06539e-02
       H -1.75186e-02  6.59379e-03 -5.45562e-03
       H  1.74105e-02  7.23367e-03 -4.84493e-03
       O  1.04948e-03 -1.36871e-02  9.02612e-03
       H -1.44204e-04 -3.50079e-03 -1.91164e-02
       H -4.96721e-04  1.67679e-02  9.99604e-03
       O -1.19133e-02  7.02136e-03 -9.73500e-03
       H -3.37298e-03 -1.86394e-02  5.11981e-03
       H  1.49041e-02  1.18393e-02  4.35547e-03
       O -1.21314e-02 -7.57848e-03  1.01887e-02
       H  1.46737e-02 -1.17714e-02 -4.63134e-03
       H -3.14089e-03  1.87210e-02 -4.80923e-03
       O  1.12709e-02 -6.60071e-03 -1.07866e-02
       H  3.39271e-03 -1.97856e-03  1.91980e-02
       H -1.46496e-02  8.46305e-03 -9.44350e-03
       O  1.10305e-02  7.23455e-03  9.89794e-03
       H  3.47504e-03  1.57878e-03 -1.91980e-02
       H -1.47439e-02 -8.57097e-03  9.73755e-03
       O -1.13988e-02 -7.26762e-03  1.02219e-02
       H -3.32890e-03 -1.45338e-03 -1.92142e-02
       H  1.46930e-02  8.53570e-03  9.63606e-03
       O -1.20800e-02  6.78865e-03 -9.63323e-03
       H -2.84832e-03  2.09251e-03  1.90636e-02
       H  1.44369e-02 -8.75652e-03 -9.79675e-03
       O  1.22447e-02  6.79305e-03  1.01124e-02
       H -1.43763e-02  1.20084e-02 -5.11804e-03
       H  2.63344e-03 -1.87732e-02 -4.77981e-03
       O  1.19712e-02 -7.68816e-03 -1.00613e-02
       H -1.49296e-02 -1.18443e-02  4.67658e-03
       H  3.41078e-03  1.85978e-02  4.73759e-03
       O  5.00543e-04  1.35599e-02  1.02815e-02
       H -5.03533e-04  3.50706e-03 -1.91413e-02
       H  8.59954e-05 -1.70158e-02  9.46567e-03
       O -4.10227e-05  1.48535e-02  9.36637e-03
       H -1.75609e-02 -7.15145e-03 -4.59194e-03
       H  1.76717e-02 -7.05936e-03 -4.69478e-03
       O -1.28721e-02 -7.80908e-03 -9.03286e-03
       H -2.53944e-03 -1.44289e-03  1.91117e-02
       H  1.45126e-02  8.51842e-03 -9.97109e-03
       O  1.19200e-04 -1.38511e-02  9.72878e-03
       H -3.40622e-04 -3.45393e-03 -1.90870e-02
       H  3.34111e-04  1.68959e-02  9.77907e-03
       O -9.36759e-04  1.35269e-02  1.03594e-02
       H  5.27010e-04  3.45973e-03 -1.91994e-02
       H  1.01010e-04 -1.72532e-02  9.28803e-03
       O  1.58079e-04  1.39047e-02  1.01879e-02
       H -1.76178e-02 -6.41033e-03 -5.15700e-03
       H  1.76424e-02 -7.02599e-03 -4.77059e-03
       O  1.21359e-02 -6.07183e-03 -1.04095e-02
       H  2.93161e-03 -2.04422e-03  1.92290e-02
       H -1.48719e-02  8.42110e-03 -9.44224e-03
       O  1.12370e-02  7.83873e-03  1.01819e-02
       H  3.26720e-03  1.29579e-03 -1.91312e-02
       H -1.46588e-02 -8.59180e-03  9.50562e-03
       O -1.13841e-02  7.88079e-03 -9.88676e-03
       H -3.32826e-03 -1.86457e-02  4.76119e-03
       H  1.47132e-02  1.17683e-02  5.10355e-03
       O -1.20102e-02 -7.59789e-03  1.00913e-02
       H  1.47731e-02 -1.17385e-02 -4.55257e-03
       H -3.15977e-03  1.87499e-02 -4.82852e-03
       O  1.29806e-02  7.60615e-03  9.33700e-03
       H -1.50217e-02  1.16631e-02 -4.53099e-03
       H  2.63132e-03 -1.88734e-02 -4.66459e-03
       O  1.22605e-02  7.16681e-03  1.00046e-02
       H  2.72630e-03  2.00566e-03 -1.91084e-02
       H -1.46603e-02 -8.88250e-03  9.50469e-03
       O -1.14112e-02 -7.94273e-03  1.06331e-02
       H -3.26022e-03 -1.24236e-03 -1.91365e-02
       H  1.47843e-02  8.88338e-03  9.14019e-03
       O -1.24309e-02  6.78183e-03 -9.90900e-03
       H -2.81939e-03  2.11886e-03  1.91040e-02
       H  1.44426e-02 -8.64685e-03 -9.70998e-03
       O  3.35673e-04  1.40546e-02 -1.01682e-02
       H  3.92100e-04  3.52118e-03  1.92507e-02
       H -4.44849e-04 -1.69207e-02 -9.61736e-03
       O -1.14051e-02 -7.89043e-03 -1.03263e-02
       H  1.46127e-02 -1.16050e-02  5.21487e-03
       H -3.01338e-03  1.88608e-02  4.81082e-03
       O -6.82352e-05  1.43604e-02  9.94895e-03
       H  5.52898e-04  3.43347e-03 -1.91497e-02
       H -3.52656e-04 -1.69699e-02  9.83911e-03
       O  1.23885e-02  7.45548e-03 -8.85173e-03
       H  2.80411e-03  1.51662e-03  1.91525e-02
       H -1.44822e-02 -8.47587e-03 -1.00508e-02
       O  2.05221e-04 -1.34473e-02  1.00191e-02
       H -1.77862e-02  6.14294e-03 -5.29055e-03
       H  1.76176e-02  7.01549e-03 -4.38781e-03
       O -1.27364e-02 -6.55331e-03 -1.01174e-02
       H  1.44226e-02 -1.21469e-02  4.82289e-03
       H -2.78176e-03  1.87246e-02  4.92951e-03
       O -1.24952e-02  6.36492e-03 -9.72059e-03
       H -2.96981e-03 -1.86172e-02  4.57253e-03
       H  1.45466e-02  1.23716e-02  4.65114e-03
       O  1.14878e-03  1.34599e-02  1.00870e-02
       H -1.79507e-02 -6.27815e-03 -4.73357e-03
       H  1.75623e-02 -6.85980e-03 -4.94063e-03
       O -1.13824e-02 -7.51066e-03 -1.03436e-02
       H -3.34056e-03 -1.54713e-03  1.92027e-02
       H  1.47577e-02  8.76881e-03 -9.54896e-03
       O -1.28256e-02  6.39347e-03  9.33848e-03
       H -2.84211e-03  1.60175e-03 -1.92655e-02
       H  1.49646e-02 -8.08306e-03  9.87685e-03
       O -1.20666e-02  7.80131e-03 -1.00441e-02
       H -3.34978e-03 -1.85062e-02  4.74443e-03
       H  1.47764e-02  1.17190e-02  4.81361e-03
       O -1.14511e-02  6.59484e-03 -9.46655e-03
       H -3.11443e-03  1.69300e-03  1.93615e-02
       H  1.46522e-02 -8.58660e-03 -9.77220e-03
       O  1.14946e-02  6.89066e-03  1.03761e-02
       H -1.48194e-02  1.17631e-02 -4.61791e-03
       H  3.34617e-03 -1.85182e-02 -5.19965e-03
       O  1.23796e-02 -7.25017e-03 -8.99061e-03
       H -1.48187e-02 -1.19651e-02  4.32121e-03
       H  3.03364e-03  1.88964e-02  4.53832e-03
       O -1.30043e-02  6.02065e-03 -1.06605e-02
       H -2.48013e-03 -1.86311e-02  5.37294e-03
       H  1.47686e-02  1.20139e-02  4.97320e-03
       O  5.17007e-04  1.38094e-02  9.11567e-03
       H -1.78171e-02 -6.78983e-03 -4.49691e-03
       H  1.76477e-02 -6.82845e-03 -4.96688e-03
       O -1.24544e-02 -7.50374e-03 -1.02107e-02
       H -3.09894e-03 -1.10780e-03  1.89367e-02
       H  1.49056e-02  8.28604e-03 -9.52542e-03