1080
# CELL(abcABC):   76.65400    73.76034    13.90838    90.00000    90.00000    90.00000  Step:           0  Bead:       0 forces{atomic_unit}  cell{atomic_unit}
       O -1.22721e-02  6.29612e-03 -9.99037e-03
       H -3.02586e-03 -1.86400e-02  4.46810e-03
       H  1.43362e-02  1.24363e-02  4.64044e-03
       O  3.86165e-04 -1.52787e-02 -9.27305e-03
       H -7.97398e-05 -2.96855e-03  1.91422e-02
       H -1.14262e-04  1.69298e-02 -9.91715e-03
       O  1.23500e-02 -6.21142e-03 -8.98768e-03
       H  2.84841e-03 -1.80932e-03  1.91002e-02
       H -1.47963e-02  8.00122e-03 -9.93003e-03
       O  1.28177e-02 -6.93036e-03 -9.60751e-03
       H -1.50780e-02 -1.15651e-02  4.59048e-03
       H  2.56789e-03  1.87598e-02  5.20493e-03
       O -4.38538e-04 -1.42019e-02 -9.33229e-03
       H -1.74960e-02  6.91086e-03  5.15524e-03
       H  1.76768e-02  7.07764e-03  4.59238e-03
       O  1.23517e-02 -5.79560e-03  9.90793e-03
       H -1.46771e-02 -1.21316e-02 -4.40078e-03
       H  2.89474e-03  1.85896e-02 -5.22449e-03
       O  1.17473e-02 -8.17996e-03 -9.24138e-03
       H  2.90405e-03 -1.59106e-03  1.91820e-02
       H -1.43348e-02  8.95910e-03 -9.92673e-03
       O  2.56457e-04 -1.36633e-02  1.12328e-02
       H -1.67486e-04 -3.79136e-03 -1.89890e-02
       H -2.78097e-05  1.70730e-02  9.20254e-03
       O -1.21205e-02 -7.36872e-03  1.00317e-02
       H -3.17491e-03 -1.42894e-03 -1.91486e-02
       H  1.48199e-02  8.15079e-03  9.64279e-03
       O  5.55101e-04 -1.36169e-02 -1.01724e-02
       H -4.20070e-04 -3.55837e-03  1.91931e-02
       H -5.02280e-05  1.71200e-02 -9.53114e-03
       O  4.52796e-04 -1.38711e-02  9.01041e-03
       H -1.77704e-02  6.91813e-03 -4.31490e-03
       H  1.77299e-02  6.67727e-03 -5.04433e-03
       O -1.23575e-02 -5.78906e-03 -1.01750e-02
       H  1.45606e-02 -1.22457e-02  4.84345e-03
       H -2.69315e-03  1.86697e-02  5.15779e-03
       O -1.24584e-02 -7.43944e-03  1.00988e-02
       H -2.74611e-03 -1.91920e-03 -1.90133e-02
       H  1.45703e-02  8.95609e-03  9.63113e-03
       O  9.68686e-05  1.43102e-02  8.72916e-03
       H -1.78418e-02 -6.95600e-03 -4.09340e-03
       H  1.78090e-02 -6.80351e-03 -4.45005e-03
       O  9.50990e-04 -1.38963e-02  1.03077e-02
       H -1.77703e-02  6.79244e-03 -4.84355e-03
       H  1.74405e-02  7.00838e-03 -5.16406e-03
       O  1.08774e-03 -1.35363e-02  1.04338e-02
       H -6.38504e-04 -3.47937e-03 -1.91245e-02
       H -1.62438e-04  1.72811e-02  9.21510e-03
       O -1.37729e-05  1.35934e-02  9.55978e-03
       H  6.00863e-06  3.25921e-03 -1.92178e-02
       H  5.91034e-05 -1.72820e-02  9.49930e-03
       O  2.32923e-04  1.40562e-02  9.45654e-03
       H -1.75997e-02 -7.08492e-03 -4.48819e-03
       H  1.75887e-02 -6.92430e-03 -5.04718e-03
       O  4.54992e-05 -1.40446e-02  9.03383e-03
       H -1.79194e-02  6.67854e-03 -4.31911e-03
       H  1.78693e-02  6.74162e-03 -4.29000e-03
       O -1.31929e-02  7.76338e-03  9.14831e-03
       H -2.54228e-03  1.46399e-03 -1.91194e-02
       H  1.47458e-02 -8.51199e-03  9.95132e-03
       O -6.82793e-04  1.44923e-02  9.55839e-03
       H  5.97952e-05  3.18771e-03 -1.91069e-02
       H  4.72907e-04 -1.70751e-02  9.70137e-03
       O  6.88825e-04  1.45451e-02  1.03560e-02
       H -1.76638e-02 -6.60783e-03 -4.92168e-03
       H  1.74481e-02 -7.11253e-03 -4.81225e-03
       O  1.20214e-02  6.51333e-03  9.26795e-03
       H -1.48503e-02  1.19468e-02 -4.30817e-03
       H  3.06534e-03 -1.87567e-02 -4.93320e-03
       O  2.19107e-04 -1.45768e-02  8.61721e-03
       H -6.05053e-05 -3.10801e-03 -1.91505e-02
       H -5.31011e-05  1.67295e-02  1.01465e-02
       O -1.18236e-02  7.64917e-03 -9.82627e-03
       H -3.42051e-03 -1.87069e-02  4.50538e-03
       H  1.47308e-02  1.19809e-02  4.65997e-03
       O  1.83291e-04 -1.45883e-02 -1.02109e-02
       H  2.87185e-04 -3.25466e-03  1.90064e-02
       H -2.87513e-04  1.71352e-02 -9.55433e-03
       O  1.19470e-02 -5.62254e-03 -9.99364e-03
       H  3.04099e-03 -2.46418e-03  1.91038e-02
       H -1.48051e-02  8.35893e-03 -9.72836e-03
       O  1.23180e-02 -7.27071e-03 -1.03777e-02
       H -1.49945e-02 -1.14820e-02  4.80887e-03
       H  2.92849e-03  1.85819e-02  5.36341e-03
       O -5.60458e-04 -1.41130e-02 -9.54281e-03
       H -1.75665e-02  7.02097e-03  5.07428e-03
       H  1.76992e-02  6.99865e-03  4.51962e-03
       O  2.58287e-04 -1.38000e-02 -9.86238e-03
       H -9.19445e-05 -3.35311e-03  1.92264e-02
       H -1.46042e-04  1.72137e-02 -9.52596e-03
       O  1.20108e-02 -8.21107e-03 -9.59741e-03
       H  2.78397e-03 -1.42001e-03  1.92175e-02
       H -1.45508e-02  9.01730e-03 -9.68393e-03
       O  1.21594e-02 -6.36097e-03 -9.33109e-03
       H -1.49006e-02 -1.19397e-02  4.31726e-03
       H  2.88931e-03  1.86450e-02  4.98144e-03
       O  4.28722e-04 -1.37681e-02 -9.28630e-03
       H -1.77275e-02  6.89455e-03  4.59807e-03
       H  1.76911e-02  6.86767e-03  5.00827e-03
       O -1.24246e-02 -5.86955e-03  1.00556e-02
       H  1.46266e-02 -1.22449e-02 -4.82649e-03
       H -2.72553e-03  1.86577e-02 -5.07390e-03
       O -1.27947e-02 -6.57418e-03 -9.26159e-03
       H -2.64468e-03 -1.78740e-03  1.92776e-02
       H  1.49753e-02  8.15700e-03 -9.88431e-03
       O -3.61808e-04 -1.42113e-02  1.00185e-02
       H -2.83099e-04 -3.43977e-03 -1.90977e-02
       H  3.96090e-04  1.69330e-02  9.64286e-03
       O  1.08401e-03 -1.34136e-02 -1.01363e-02
       H -1.79199e-02  6.44935e-03  4.51812e-03
       H  1.75934e-02  6.80717e-03  5.05719e-03
       O  1.26192e-02  7.31371e-03 -8.66171e-03
       H  2.68435e-03  1.62275e-03  1.91835e-02
       H -1.44592e-02 -8.42422e-03 -1.01680e-02
       O -1.22386e-02 -6.37021e-03 -1.04374e-02
       H -2.90568e-03 -2.00842e-03  1.90812e-02
       H  1.49169e-02  8.59838e-03 -9.42448e-03
       O -1.24791e-02 -6.58405e-03 -1.01825e-02
       H  1.45507e-02 -1.21084e-02  4.86182e-03
       H -2.80064e-03  1.85732e-02  4.59923e-03
       O  1.18032e-02  6.54649e-03 -1.01177e-02
       H -1.45210e-02  1.22894e-02  5.17125e-03
       H  2.84932e-03 -1.87372e-02  4.45691e-03
       O -1.09758e-03  1.36383e-02  1.00396e-02
       H -1.75243e-02 -6.95504e-03 -5.05307e-03
       H  1.78532e-02 -6.49439e-03 -4.79478e-03
       O  1.26583e-02 -7.03883e-03 -1.00865e-02
       H  2.94083e-03 -1.40695e-03  1.89391e-02
       H -1.50264e-02  8.15283e-03 -9.61543e-03
       O  1.23357e-02  7.19507e-03  9.94130e-03
       H  2.87287e-03  1.85871e-03 -1.90629e-02
       H -1.44694e-02 -8.84923e-03  9.67079e-03
       O  1.16428e-02  6.85324e-03 -1.00282e-02
       H -1.48001e-02  1.17132e-02  4.57346e-03
       H  3.27610e-03 -1.85206e-02  5.23195e-03
       O -8.97950e-04 -1.41852e-02 -9.32181e-03
       H  1.69989e-04 -3.11119e-03  1.91761e-02
       H  4.71162e-04  1.70720e-02 -9.66845e-03
       O -6.72041e-04  1.35510e-02 -1.02360e-02
       H  4.93073e-04  3.53553e-03  1.91540e-02
       H  1.40962e-05 -1.70809e-02 -9.49054e-03
       O  2.43862e-05  1.44562e-02 -9.21590e-03
       H -1.76668e-02 -6.85445e-03  4.42904e-03
       H  1.77867e-02 -7.11716e-03  4.54400e-03
       O -1.93753e-04 -1.46067e-02 -8.90302e-03
       H -1.77438e-02  7.01290e-03  4.57249e-03
       H  1.77667e-02  6.93427e-03  4.31473e-03
       O -1.29725e-02 -6.69694e-03  1.02793e-02
       H  1.46123e-02 -1.20286e-02 -4.87422e-03
       H -2.62202e-03  1.85846e-02 -4.72788e-03
       O -8.87725e-05  1.41619e-02 -1.01202e-02
       H  4.76510e-04  3.33031e-03  1.90335e-02
       H -4.55991e-04 -1.71247e-02 -9.43168e-03
       O  1.23453e-02  6.39687e-03  9.01130e-03
       H  2.89902e-03  1.73761e-03 -1.92245e-02
       H -1.48140e-02 -8.01850e-03  9.99072e-03
       O -1.19194e-02 -6.45088e-03  9.54570e-03
       H -3.03704e-03 -1.77454e-03 -1.92253e-02
       H  1.47994e-02  8.43803e-03  9.77284e-03
       O -1.22677e-02 -7.63329e-03  9.67135e-03
       H  1.48583e-02 -1.16340e-02 -5.23878e-03
       H -2.54431e-03  1.88440e-02 -4.61534e-03
       O -1.16416e-02  7.46823e-03  9.26737e-03
       H -2.89995e-03 -1.88785e-02 -4.50670e-03
       H  1.47355e-02  1.17846e-02 -5.10578e-03
       O -1.21702e-02  7.75044e-03  9.61113e-03
       H -2.83358e-03  1.46709e-03 -1.92071e-02
       H  1.45690e-02 -8.89928e-03  9.67559e-03
       O -1.22190e-02 -7.86920e-03  9.56490e-03
       H -2.77544e-03 -1.50100e-03 -1.91629e-02
       H  1.45818e-02  8.93864e-03  9.68933e-03
       O -1.20289e-02 -6.50966e-03  9.30942e-03
       H  1.47947e-02 -1.18618e-02 -4.31598e-03
       H -2.93426e-03  1.87367e-02 -4.94252e-03
       O -1.20530e-02  7.34307e-03  9.47672e-03
       H -2.60859e-03 -1.88360e-02 -4.49267e-03
       H  1.47475e-02  1.17365e-02 -5.07221e-03
       O  7.31259e-04 -1.44247e-02  9.59970e-03
       H -5.00284e-05 -3.16606e-03 -1.91346e-02
       H -4.44467e-04  1.70660e-02  9.66567e-03
       O  1.29405e-02 -6.64330e-03  9.54421e-03
       H  2.68866e-03 -1.61059e-03 -1.91436e-02
       H -1.50247e-02  8.11410e-03  9.71791e-03
       O  1.19796e-02 -7.27884e-03  9.55445e-03
       H -1.47395e-02 -1.17726e-02 -5.07749e-03
       H  2.64119e-03  1.88818e-02 -4.60057e-03
       O -4.44062e-04 -1.36498e-02  9.31800e-03
       H -1.76599e-02  6.80691e-03 -4.93453e-03
       H  1.77457e-02  6.90010e-03 -4.34141e-03
       O  1.22225e-02  7.98610e-03  9.58011e-03
       H  2.76201e-03  1.48685e-03 -1.92175e-02
       H -1.46074e-02 -8.98737e-03  9.71855e-03
       O  1.13897e-02 -7.57576e-03  1.02011e-02
       H  3.24814e-03 -1.53907e-03 -1.91485e-02
       H -1.47388e-02  8.71018e-03  9.54480e-03
       O  1.24439e-02  6.75364e-03 -9.91418e-03
       H  3.13007e-03  1.47125e-03  1.90117e-02
       H -1.48859e-02 -7.97550e-03 -9.64384e-03
       O  1.16314e-02  7.86262e-03  1.02526e-02
       H -1.47541e-02  1.16183e-02 -5.34000e-03
       H  3.02047e-03 -1.87851e-02 -4.84327e-03
       O  1.12343e-02 -7.77704e-03 -1.00079e-02
       H -1.47242e-02 -1.17274e-02  5.12377e-03
       H  3.37365e-03  1.87589e-02  4.73864e-03
       O -1.17534e-02  7.26031e-03 -9.25272e-03
       H -2.94611e-03 -1.87417e-02  4.55114e-03
       H  1.47905e-02  1.18547e-02  4.98649e-03
       O -1.24293e-02  7.44726e-03 -1.01585e-02
       H -2.65456e-03  1.83607e-03  1.89317e-02
       H  1.45095e-02 -8.95820e-03 -9.53447e-03
       O -1.30708e-02 -7.51133e-03 -9.03118e-03
       H -2.59541e-03 -1.57749e-03  1.92196e-02
       H  1.46499e-02  8.31897e-03 -1.00386e-02
       O -3.71577e-04  1.35259e-02 -1.01025e-02
       H -1.75359e-02 -6.98541e-03  4.42901e-03
       H  1.78702e-02 -6.37515e-03  5.18310e-03
       O  4.58597e-05  1.44118e-02  9.96787e-03
       H  1.87488e-04  3.29807e-03 -1.90573e-02
       H -3.71513e-04 -1.70161e-02  9.69709e-03
       O  1.24894e-02  7.20308e-03 -9.95607e-03
       H  3.01860e-03  1.44018e-03  1.90881e-02
       H -1.49228e-02 -8.22710e-03 -9.71762e-03
       O  1.17096e-02  7.04844e-03  1.00391e-02
       H -1.48107e-02  1.17904e-02 -4.61759e-03
       H  3.29626e-03 -1.86269e-02 -5.22843e-03
       O  1.19364e-02 -6.51449e-03 -1.00252e-02
       H -1.44962e-02 -1.21561e-02  5.23804e-03
       H  2.72704e-03  1.86102e-02  4.52475e-03
       O -1.17019e-02  7.34258e-03 -9.44951e-03
       H -2.86887e-03 -1.89593e-02  4.46852e-03
       H  1.47769e-02  1.18966e-02  5.10313e-03
       O -1.32335e-02  7.42852e-03 -9.32757e-03
       H -2.54229e-03  1.47703e-03  1.91425e-02
       H  1.47401e-02 -8.42467e-03 -9.81588e-03
       O -1.30394e-02 -6.24482e-03 -9.51194e-03
       H -2.63756e-03 -1.78331e-03  1.91411e-02
       H  1.50480e-02  8.05821e-03 -9.72155e-03
       O -1.20120e-02 -7.43577e-03 -9.47253e-03
       H  1.49464e-02 -1.16946e-02  5.00691e-03
       H -2.72347e-03  1.87736e-02  4.51045e-03
       O -1.23944e-02 -7.33736e-03  9.91090e-03
       H -2.88190e-03 -1.76547e-03 -1.90622e-02
       H  1.45706e-02  8.85080e-03  9.72663e-03
       O -1.26878e-02  7.00997e-03 -1.01940e-02
       H -2.94003e-03  1.36781e-03  1.89417e-02
       H  1.49570e-02 -8.16667e-03 -9.51085e-03
       O  1.06111e-03 -1.37595e-02  1.00744e-02
       H -1.78527e-02  6.52499e-03 -4.78700e-03
       H  1.75604e-02  7.03961e-03 -5.12074e-03
       O -1.20646e-02 -6.87171e-03 -1.02337e-02
       H  1.46078e-02 -1.20287e-02  5.31028e-03
       H -2.75405e-03  1.87143e-02  4.57280e-03
       O  1.17419e-02  7.27075e-03 -9.23055e-03
       H -1.47219e-02  1.18883e-02  4.96296e-03
       H  2.92689e-03 -1.87815e-02  4.54994e-03
       O  1.10921e-02 -7.84018e-03  1.00887e-02
       H -1.47061e-02 -1.16196e-02 -5.14252e-03
       H  3.34020e-03  1.87212e-02 -4.67777e-03
       O  1.30320e-02 -7.20236e-03 -9.08083e-03
       H  2.68495e-03 -1.51531e-03  1.91946e-02
       H -1.46204e-02  8.36856e-03 -9.99100e-03
       O  1.13929e-02  7.31479e-03  1.02607e-02
       H  3.29655e-03  1.63531e-03 -1.91766e-02
       H -1.47193e-02 -8.45572e-03  9.56835e-03
       O -1.25134e-02 -6.01325e-03  9.06057e-03
       H -2.82764e-03 -1.77692e-03 -1.91635e-02
       H  1.48049e-02  7.96638e-03  9.93025e-03
       O -1.08297e-02  7.55614e-03 -9.95618e-03
       H -3.56239e-03  1.48221e-03  1.90857e-02
       H  1.46282e-02 -8.64855e-03 -9.69699e-03
       O  1.23346e-02  7.94747e-03  1.02855e-02
       H -1.48852e-02  1.14583e-02 -4.71339e-03
       H  3.07933e-03 -1.86175e-02 -4.96824e-03
       O  1.19592e-02 -7.43063e-03 -9.75763e-03
       H -1.48668e-02 -1.19693e-02  4.39011e-03
       H  3.49417e-03  1.85684e-02  4.67931e-03
       O -1.23663e-02  7.67748e-03 -9.71019e-03
       H -2.55066e-03 -1.88522e-02  4.69118e-03
       H  1.49947e-02  1.15624e-02  5.17488e-03
       O -1.19689e-02  6.64784e-03 -1.12750e-02
       H -3.22469e-03  2.03370e-03  1.89730e-02
       H  1.49136e-02 -8.55502e-03 -9.22083e-03
       O -1.32624e-02 -6.21791e-03 -9.59202e-03
       H -2.62509e-03 -1.74377e-03  1.92159e-02
       H  1.51269e-02  8.04726e-03 -9.69504e-03
       O -1.15746e-02 -8.08790e-03 -1.00442e-02
       H  1.49431e-02 -1.16444e-02  5.26773e-03
       H -3.12906e-03  1.87143e-02  4.57499e-03
       O -1.18663e-05  1.45451e-02  8.62757e-03
       H -6.60954e-05  3.17088e-03 -1.91651e-02
       H -3.25284e-05 -1.67367e-02  1.02248e-02
       O  1.16776e-02 -6.79722e-03  1.00660e-02
       H -1.47768e-02 -1.19446e-02 -4.53585e-03
       H  3.37443e-03  1.85516e-02 -5.31383e-03
       O  6.36473e-04 -1.45817e-02  1.03639e-02
       H -1.77019e-02  6.63553e-03 -4.91190e-03
       H  1.74791e-02  7.03661e-03 -4.88000e-03
       O -6.85150e-04 -1.35453e-02  1.02634e-02
       H  3.42380e-04 -3.65517e-03 -1.91186e-02
       H  2.75413e-05  1.70691e-02  9.61750e-03
       O -1.07137e-04 -1.41435e-02 -1.00405e-02
       H -1.75286e-02  7.15385e-03  4.43939e-03
       H  1.78193e-02  6.68482e-03  5.40848e-03
       O  1.28558e-02 -6.84292e-03  1.03131e-02
       H -1.45922e-02 -1.19105e-02 -4.86255e-03
       H  2.64115e-03  1.86887e-02 -4.84838e-03
       O -1.17381e-02 -7.13223e-03 -1.12582e-02
       H -3.29505e-03 -1.65833e-03  1.89585e-02
       H  1.48690e-02  8.63347e-03 -9.19590e-03
       O -1.27175e-02  7.26427e-03  8.61271e-03
       H -2.77763e-03  1.52220e-03 -1.91506e-02
       H  1.45042e-02 -8.36201e-03  1.02470e-02
       O  1.14878e-02 -7.21138e-03  1.01514e-02
       H  3.32225e-03 -1.54841e-03 -1.91253e-02
       H -1.47534e-02  8.55835e-03  9.56184e-03
       O  1.18507e-02  6.39281e-03 -1.09808e-02
       H  3.24575e-03  2.04697e-03  1.90584e-02
       H -1.47432e-02 -8.51768e-03 -9.35579e-03
       O  1.10865e-02  7.85140e-03  1.00063e-02
       H -1.46967e-02  1.17668e-02 -5.11015e-03
       H  3.45986e-03 -1.87308e-02 -4.66907e-03
       O  1.19518e-02 -6.82526e-03 -9.80365e-03
       H -1.43341e-02 -1.22569e-02  5.32655e-03
       H  2.79185e-03  1.88696e-02  4.43351e-03
       O  6.00855e-05  1.45149e-02  8.63895e-03
       H  1.03763e-04  3.21922e-03 -1.91049e-02
       H -1.80693e-05 -1.66802e-02  1.02137e-02
       O -1.15458e-02 -6.78641e-03  1.01457e-02
       H  1.48131e-02 -1.18407e-02 -4.43054e-03
       H -3.36520e-03  1.85324e-02 -5.16222e-03
       O -5.81674e-04 -1.42070e-02  1.01525e-02
       H -1.76485e-02  7.03297e-03 -4.77254e-03
       H  1.76512e-02  6.41655e-03 -4.66633e-03
       O  6.73089e-04 -1.37928e-02  1.05866e-02
       H -4.04568e-04 -3.46217e-03 -1.91182e-02
       H -3.92079e-05  1.71670e-02  9.36312e-03
       O  1.29020e-02 -6.39817e-03  9.31007e-03
       H  2.73513e-03 -1.63096e-03 -1.92478e-02
       H -1.50088e-02  8.02572e-03  9.84230e-03
       O  1.28204e-02 -7.40461e-03  9.35503e-03
       H -1.50131e-02 -1.16880e-02 -4.60766e-03
       H  2.72091e-03  1.87902e-02 -4.73363e-03
       O -3.63865e-04 -1.37122e-02  9.26457e-03
       H -1.76593e-02  6.84944e-03 -5.01584e-03
       H  1.76341e-02  6.89633e-03 -4.43691e-03
       O -1.18523e-02  7.94795e-03  9.27039e-03
       H -2.72789e-03  1.41018e-03 -1.91216e-02
       H  1.45773e-02 -9.02251e-03  9.69154e-03
       O  1.07432e-02 -7.55819e-03  1.00481e-02
       H  3.52273e-03 -1.49062e-03 -1.91506e-02
       H -1.45732e-02  8.70408e-03  9.60516e-03
       O -4.26631e-04 -1.42689e-02 -1.00123e-02
       H  4.04344e-04 -3.46910e-03  1.91065e-02
       H -1.70049e-04  1.70475e-02 -9.63562e-03
       O -1.23304e-02  7.65916e-03  9.86153e-03
       H -3.29876e-03 -1.86981e-02 -4.79028e-03
       H  1.48887e-02  1.17823e-02 -4.42638e-03
       O -1.23932e-02 -6.55429e-03 -8.92019e-03
       H  1.48780e-02 -1.19900e-02  4.36204e-03
       H -3.00148e-03  1.87700e-02  5.01896e-03
       O -1.16109e-02  7.35292e-03 -9.30553e-03
       H -2.93087e-03 -1.88414e-02  4.42477e-03
       H  1.47304e-02  1.17873e-02  5.08729e-03
       O -1.11966e-02 -7.81747e-03  9.84856e-03
       H  1.46637e-02 -1.18737e-02 -5.07531e-03
       H -3.31886e-03  1.88259e-02 -4.35512e-03
       O -1.19901e-02 -6.42670e-03 -9.58366e-03
       H -3.00871e-03 -1.76745e-03  1.93806e-02
       H  1.48706e-02  8.42979e-03 -9.80952e-03
       O -1.19857e-02  6.59129e-03  1.13482e-02
       H -3.20732e-03  2.10297e-03 -1.90249e-02
       H  1.49037e-02 -8.60298e-03  9.17297e-03
       O  7.78457e-04 -1.43689e-02 -1.01944e-02
       H -1.78023e-02  6.42985e-03  4.81955e-03
       H  1.75530e-02  7.08822e-03  4.60060e-03
       O  1.24140e-02  7.53752e-03 -1.01079e-02
       H  2.83220e-03  1.77221e-03  1.89155e-02
       H -1.45635e-02 -8.93183e-03 -9.57086e-03
       O -1.67328e-04  1.31900e-02 -9.23666e-03
       H -5.87036e-05  3.59980e-03  1.92745e-02
       H  3.91925e-05 -1.69911e-02 -9.94154e-03
       O -9.43123e-04  1.39194e-02 -1.01897e-02
       H -1.75001e-02 -6.91582e-03  5.17432e-03
       H  1.77710e-02 -6.71910e-03  4.66924e-03
       O  4.79770e-04  1.35743e-02  1.08625e-02
       H -1.89205e-04  3.83747e-03 -1.90064e-02
       H -1.13758e-04 -1.71493e-02  9.35876e-03
       O  1.15838e-02  7.03157e-03 -1.07498e-02
       H  3.30046e-03  1.85322e-03  1.90387e-02
       H -1.47661e-02 -8.63220e-03 -9.49837e-03
       O  1.26021e-02  5.87042e-03  9.74815e-03
       H -1.45828e-02  1.22931e-02 -4.52196e-03
       H  2.81796e-03 -1.87346e-02 -5.19143e-03
       O  1.28285e-04  1.36659e-02 -9.83606e-03
       H -1.78203e-02 -6.32818e-03  5.35296e-03
       H  1.76453e-02 -6.94053e-03  4.45923e-03
       O -2.14324e-04  1.41098e-02  9.96573e-03
       H -1.91628e-04  3.47608e-03 -1.90298e-02
       H  4.11979e-04 -1.68022e-02  9.74806e-03
       O -1.28923e-02  6.32067e-03 -9.30021e-03
       H -2.67543e-03  1.79121e-03  1.91820e-02
       H  1.49850e-02 -8.02809e-03 -9.84672e-03
       O -1.20338e-02  7.13099e-03  1.01625e-02
       H -3.25052e-03 -1.83620e-02 -5.35678e-03
       H  1.50748e-02  1.16395e-02 -4.71324e-03
       O -1.17792e-02 -7.22825e-03 -9.23196e-03
       H  1.47269e-02 -1.18865e-02  5.06357e-03
       H -2.87238e-03  1.87904e-02  4.47195e-03
       O  1.17241e-02  7.30363e-03 -9.24896e-03
       H -1.47931e-02  1.17877e-02  4.99475e-03
       H  2.87861e-03 -1.87723e-02  4.49608e-03
       O  1.15648e-02  7.42872e-03 -1.05769e-02
       H  3.26692e-03  1.43026e-03  1.91443e-02
       H -1.48179e-02 -8.65742e-03 -9.34298e-03
       O  1.28790e-02 -6.34927e-03 -9.28977e-03
       H  2.71221e-03 -1.77251e-03  1.92431e-02
       H -1.50121e-02  7.99208e-03 -9.86173e-03
       O  1.13885e-02 -7.99963e-03 -1.03074e-02
       H -1.49812e-02 -1.14605e-02  5.19087e-03
       H  3.15728e-03  1.86279e-02  4.67080e-03
       O  1.19141e-02  7.63457e-03 -1.01652e-02
       H -1.45988e-02  1.16738e-02  4.62324e-03
       H  3.21626e-03 -1.86826e-02  4.83033e-03
       O -1.21224e-03 -1.41684e-02 -9.39338e-03
       H  3.25213e-04 -3.27833e-03  1.92446e-02
       H  6.03817e-04  1.69022e-02 -9.78650e-03
       O -1.25567e-02 -6.00473e-03 -8.98654e-03
       H -2.80592e-03 -1.81921e-03  1.91557e-02
       H  1.48374e-02  7.98125e-03 -9.95168e-03
       O -1.25932e-02 -6.66495e-03 -9.40292e-03
       H  1.50593e-02 -1.18122e-02  4.58502e-03
       H -2.76047e-03  1.85527e-02  5.10363e-03
       O  1.21939e-02 -6.05493e-03  1.01789e-02
       H  2.89190e-03 -2.17580e-03 -1.92081e-02
       H -1.48366e-02  8.51470e-03  9.65757e-03
       O  1.25051e-02 -7.31603e-03  8.90862e-03
       H -1.49610e-02 -1.19446e-02 -4.60300e-03
       H  2.89439e-03  1.87089e-02 -4.30173e-03
       O  1.16438e-04 -1.34447e-02  1.01680e-02
       H -1.77130e-02  6.39601e-03 -5.29102e-03
       H  1.76146e-02  6.88471e-03 -4.68313e-03
       O -1.23572e-02  7.03747e-03  9.99138e-03
       H -2.63036e-03  1.92138e-03 -1.90163e-02
       H  1.47171e-02 -8.78695e-03  9.41417e-03
       O -5.62296e-04 -1.41028e-02 -9.49267e-03
       H -1.78066e-02  6.73635e-03  4.35932e-03
       H  1.79399e-02  6.27153e-03  4.55466e-03
       O  1.27120e-02 -6.40307e-03  1.01507e-02
       H -1.43964e-02 -1.22348e-02 -4.73852e-03
       H  2.68844e-03  1.87130e-02 -4.64075e-03
       O -1.01767e-04  1.30210e-02 -1.07586e-02
       H -8.27480e-05  4.02952e-03  1.90370e-02
       H  7.19680e-05 -1.69926e-02 -9.39737e-03
       O -1.14318e-02  7.84315e-03  8.87182e-03
       H -3.05620e-03  1.57323e-03 -1.91169e-02
       H  1.43058e-02 -8.80201e-03  1.00885e-02
       O  1.18429e-02 -7.89386e-03  9.34507e-03
       H  2.75435e-03 -1.40625e-03 -1.92041e-02
       H -1.45315e-02  8.96606e-03  9.65564e-03
       O -1.08967e-04  1.33379e-02  1.01718e-02
       H -1.75360e-02 -6.96756e-03 -4.46819e-03
       H  1.76697e-02 -6.43790e-03 -5.21086e-03
       O -1.28568e-02  7.41942e-03  9.30232e-03
       H -2.66444e-03 -1.88244e-02 -4.58096e-03
       H  1.49829e-02  1.17424e-02 -4.62671e-03
       O -1.23207e-02  6.23239e-03  1.04449e-02
       H -2.73714e-03  2.05443e-03 -1.90461e-02
       H  1.48718e-02 -8.53462e-03  9.36398e-03
       O  1.26416e-02  6.04723e-03 -1.01155e-02
       H -1.47053e-02  1.20374e-02  4.83036e-03
       H  2.68749e-03 -1.84748e-02  5.18592e-03
       O  1.25561e-02  5.98758e-03 -9.02103e-03
       H  2.81037e-03  1.78362e-03  1.91815e-02
       H -1.48252e-02 -7.92789e-03 -9.93367e-03
       O  2.00149e-04  1.41787e-02 -1.00254e-02
       H  1.32426e-04  3.47757e-03  1.90635e-02
       H -4.70579e-04 -1.68153e-02 -9.64670e-03
       O -1.20377e-02 -7.51785e-03 -1.01443e-02
       H  1.47195e-02 -1.17840e-02  4.70474e-03
       H -3.15544e-03  1.86272e-02  4.71914e-03
       O -2.96432e-04  1.52095e-02  9.24996e-03
       H  8.61825e-05  2.92634e-03 -1.90765e-02
       H  7.92050e-05 -1.70142e-02  9.86693e-03
       O  1.16984e-02 -7.72698e-03  9.73971e-03
       H -1.45956e-02 -1.19862e-02 -4.54533e-03
       H  3.53337e-03  1.87706e-02 -4.42852e-03
       O -1.23908e-02  6.83650e-03  9.54750e-03
       H -2.88300e-03 -1.87282e-02 -5.07144e-03
       H  1.50511e-02  1.17991e-02 -4.59271e-03
       O -1.20164e-02  5.43994e-03  9.98332e-03
       H -3.00014e-03  2.54338e-03 -1.91464e-02
       H  1.48526e-02 -8.27965e-03  9.71802e-03
       O -8.40652e-04 -1.42053e-02 -1.01492e-02
       H -1.75611e-02  6.97475e-03  4.64158e-03
       H  1.77792e-02  6.32136e-03  4.74575e-03
       O  1.83489e-04 -1.31309e-02 -9.27496e-03
       H -4.28446e-05 -3.64899e-03  1.92999e-02
       H -9.54477e-05  1.69375e-02 -9.92001e-03
       O -1.06826e-03  1.38645e-02 -8.94838e-03
       H  9.97330e-05  3.35336e-03  1.91296e-02
       H  5.21885e-04 -1.68087e-02 -9.96946e-03
       O  6.10611e-04  1.47282e-02 -1.02242e-02
       H -1.76500e-02 -6.63254e-03  4.79721e-03
       H  1.74706e-02 -7.16423e-03  4.72497e-03
       O  1.12844e-02 -6.40535e-03  1.07912e-02
       H  3.61889e-03 -1.97356e-03 -1.90312e-02
       H -1.47432e-02  8.43949e-03  9.44216e-03
       O  1.14142e-02  6.49419e-03 -9.18565e-03
       H  3.13656e-03  1.74298e-03  1.92967e-02
       H -1.46897e-02 -8.43735e-03 -9.95228e-03
       O -1.26513e-02  6.63517e-03  9.47207e-03
       H -2.99923e-03 -1.88637e-02 -4.42763e-03
       H  1.45345e-02  1.23923e-02 -4.50586e-03
       O -1.24735e-02 -7.91349e-03 -1.03615e-02
       H  1.50120e-02 -1.15490e-02  4.72916e-03
       H -3.13848e-03  1.85951e-02  5.00786e-03
       O  1.27706e-02  7.20387e-03 -8.76822e-03
       H -1.48826e-02  1.18724e-02  4.21888e-03
       H  2.85224e-03 -1.88823e-02  4.44716e-03
       O  1.20189e-02 -7.62944e-03  1.02145e-02
       H -1.46712e-02 -1.17267e-02 -4.69240e-03
       H  3.13267e-03  1.87279e-02 -4.75250e-03
       O -1.11724e-02 -7.60144e-03 -1.04343e-02
       H -3.34610e-03 -1.29271e-03  1.90777e-02
       H  1.48089e-02  8.74437e-03 -9.25467e-03
       O -1.26359e-02  6.00182e-03  8.97754e-03
       H -2.83284e-03  1.81857e-03 -1.92067e-02
       H  1.48734e-02 -7.99527e-03  1.00152e-02
       O  1.20644e-02 -7.63488e-03  9.36254e-03
       H  2.88204e-03 -1.47998e-03 -1.92613e-02
       H -1.44882e-02  8.87193e-03  9.83734e-03
       O -1.13956e-03  1.36587e-02  9.90387e-03
       H -1.75985e-02 -6.89073e-03 -5.13939e-03
       H  1.78451e-02 -6.59293e-03 -4.41124e-03
       O  1.16450e-02  7.18617e-03  9.30086e-03
       H -1.47232e-02  1.19498e-02 -5.08251e-03
       H  2.97392e-03 -1.87475e-02 -4.46216e-03
       O  1.17693e-02  7.18953e-03  1.11652e-02
       H  3.32084e-03  1.63108e-03 -1.89596e-02
       H -1.48617e-02 -8.67862e-03  9.20285e-03
       O  1.22943e-02  6.48132e-03 -8.98687e-03
       H -1.48470e-02  1.19808e-02  4.34097e-03
       H  2.97351e-03 -1.87062e-02  5.06370e-03
       O  1.22664e-02 -7.64273e-03  9.86912e-03
       H -1.48378e-02 -1.17762e-02 -4.41637e-03
       H  3.31356e-03  1.86955e-02 -4.78449e-03
       O  3.62022e-04  1.41682e-02 -9.99322e-03
       H -3.62375e-04  3.56621e-03  1.91146e-02
       H  2.11010e-04 -1.69399e-02 -9.73502e-03
       O -1.08080e-02  7.56005e-03  1.00496e-02
       H -3.49982e-03  1.48243e-03 -1.91744e-02
       H  1.46335e-02 -8.71626e-03  9.61004e-03
       O  1.17567e-02 -7.96897e-03  9.29577e-03
       H  2.76023e-03 -1.41799e-03 -1.91448e-02
       H -1.44835e-02  8.95255e-03  9.67462e-03
       O  5.59824e-04  1.39521e-02  9.70475e-03
       H -1.77900e-02 -6.28125e-03 -4.65115e-03
       H  1.76796e-02 -6.91241e-03 -4.30794e-03
       O -1.25396e-02  7.06028e-03  9.27470e-03
       H -2.79298e-03 -1.88500e-02 -4.60945e-03
       H  1.47628e-02  1.19909e-02 -4.51498e-03
       O  1.29199e-04 -1.38449e-02  9.73866e-03
       H  4.80288e-04 -3.61172e-03 -1.90765e-02
       H -5.13377e-04  1.68838e-02  9.76261e-03
       O -1.19085e-02  7.80176e-03 -9.84670e-03
       H -3.42643e-03 -1.85760e-02  4.57774e-03
       H  1.47006e-02  1.18276e-02  4.68578e-03
       O -1.28884e-02 -6.46567e-03  9.93357e-03
       H  1.44591e-02 -1.21751e-02 -4.63236e-03
       H -2.68740e-03  1.87489e-02 -4.70868e-03
       O  1.21201e-02 -6.66569e-03 -9.68993e-03
       H  2.83890e-03 -2.16517e-03  1.90677e-02
       H -1.44310e-02  8.67532e-03 -9.75214e-03
       O  1.17789e-02  7.10906e-03  9.63026e-03
       H  3.39370e-03  1.41279e-03 -1.90779e-02
       H -1.46982e-02 -8.17527e-03  9.86232e-03
       O -1.20745e-02 -7.60997e-03  9.27814e-03
       H -2.93508e-03 -1.54734e-03 -1.92863e-02
       H  1.44759e-02  8.82700e-03  9.97149e-03
       O -1.19724e-02  6.49518e-03 -1.13246e-02
       H -3.18911e-03  2.12578e-03  1.90050e-02
       H  1.49558e-02 -8.50434e-03 -9.16643e-03
       O -1.16617e-02  7.29507e-03  9.31680e-03
       H -2.89036e-03 -1.88165e-02 -4.56230e-03
       H  1.47662e-02  1.18162e-02 -5.04919e-03
       O -1.11414e-02 -7.87466e-03 -9.89271e-03
       H  1.46923e-02 -1.17634e-02  5.10326e-03
       H -3.32219e-03  1.88115e-02  4.41384e-03
       O -5.48015e-05  1.32020e-02  9.25403e-03
       H -9.56110e-05  3.59377e-03 -1.92387e-02
       H -1.36878e-05 -1.69898e-02  9.90654e-03
       O -3.30060e-04  1.42541e-02  9.30727e-03
       H -1.75552e-02 -6.87661e-03 -5.13762e-03
       H  1.76553e-02 -7.01838e-03 -4.63417e-03
       O  7.88124e-04 -1.43291e-02  1.01302e-02
       H -1.78517e-02  6.32325e-03 -4.73617e-03
       H  1.75604e-02  7.08714e-03 -4.60402e-03
       O  1.28088e-02  7.81921e-03  9.01232e-03
       H  2.66598e-03  1.54604e-03 -1.91030e-02
       H -1.45710e-02 -8.54577e-03  1.00316e-02
       O  1.25669e-02  6.54197e-03 -9.43000e-03
       H -1.44386e-02  1.23618e-02  4.48489e-03
       H  3.01583e-03 -1.87713e-02  4.32281e-03
       O  7.34617e-04  1.41891e-02  9.95546e-03
       H -1.77462e-02 -6.35458e-03 -4.62492e-03
       H  1.76314e-02 -6.84828e-03 -4.73499e-03
       O -1.12520e-02 -6.67167e-03 -1.07991e-02
       H -3.47258e-03 -2.07086e-03  1.90860e-02
       H  1.46508e-02  8.61422e-03 -9.38476e-03
       O  2.29747e-04 -1.38528e-02  9.57564e-03
       H -4.10341e-04 -3.53219e-03 -1.90780e-02
       H  3.88965e-04  1.68736e-02  9.81766e-03
       O -1.25643e-02  7.39812e-03 -8.89442e-03
       H -2.86020e-03 -1.86890e-02  4.24433e-03
       H  1.49125e-02  1.18915e-02  4.59427e-03
       O -1.28260e-02  7.40249e-03 -9.00295e-03
       H -2.53008e-03  1.49959e-03  1.89990e-02
       H  1.45768e-02 -8.43751e-03 -9.80094e-03
       O  1.21585e-02 -5.92301e-03 -1.03655e-02
       H  2.75161e-03 -2.23263e-03  1.91095e-02
       H -1.50782e-02  8.50720e-03 -9.26655e-03