576
# CELL(abcABC):   34.06844    44.25621    27.81677    90.00000    90.00000    90.00000  Step:           0  Bead:       0 forces{atomic_unit}  cell{atomic_unit}
       O  6.18359e-04 -1.41993e-02 -1.01274e-02
       H -1.79830e-02  6.63946e-03  4.83496e-03
       H  1.75607e-02  6.80963e-03  4.61395e-03
       O -1.30649e-02  7.84030e-03 -9.45452e-03
       H -2.65698e-03  1.32007e-03  1.91603e-02
       H  1.47379e-02 -8.62473e-03 -9.66590e-03
       O  1.25469e-02 -7.58724e-03 -1.01300e-02
       H  2.67746e-03 -1.73170e-03  1.90019e-02
       H -1.46368e-02  8.87593e-03 -9.55719e-03
       O  1.10356e-03  1.35475e-02 -1.03641e-02
       H -1.78774e-02 -6.45533e-03  4.73101e-03
       H  1.75444e-02 -6.89347e-03  5.12293e-03
       O  1.14962e-02  6.74060e-03 -1.03881e-02
       H -1.47657e-02  1.18209e-02  4.49567e-03
       H  3.39816e-03 -1.85203e-02  5.29211e-03
       O -1.16600e-03 -1.42312e-02 -9.23879e-03
       H  4.71431e-04 -3.26697e-03  1.92270e-02
       H  6.22103e-04  1.68258e-02 -9.88713e-03
       O -1.10526e-02  7.78953e-03  1.01339e-02
       H -3.35380e-03 -1.87276e-02 -4.62668e-03
       H  1.44864e-02  1.18030e-02 -5.25144e-03
       O -1.28417e-02 -5.89269e-03 -1.02407e-02
       H  1.46552e-02 -1.20283e-02  4.75837e-03
       H -2.58060e-03  1.86077e-02  5.45943e-03
       O  1.25886e-02 -5.90988e-03  1.07072e-02
       H  2.57856e-03 -2.35605e-03 -1.91978e-02
       H -1.50345e-02  8.47174e-03  9.14068e-03
       O  1.28351e-02 -6.69163e-03  9.66207e-03
       H -1.50894e-02 -1.16598e-02 -4.65417e-03
       H  2.55767e-03  1.86006e-02 -5.31090e-03
       O -1.12518e-02 -7.45538e-03 -1.04773e-02
       H -3.27729e-03 -1.57100e-03  1.92908e-02
       H  1.46620e-02  8.59094e-03 -9.45559e-03
       O  1.11721e-03 -1.37872e-02  1.05040e-02
       H -4.99395e-04 -3.56704e-03 -1.91267e-02
       H -2.66892e-04  1.72094e-02  9.39015e-03
       O  1.12979e-02 -7.41661e-03  1.03339e-02
       H  3.30294e-03 -1.56376e-03 -1.92106e-02
       H -1.47342e-02  8.55293e-03  9.52314e-03
       O -7.25460e-04 -1.38481e-02 -1.06808e-02
       H  3.45565e-04 -3.52463e-03  1.92773e-02
       H  1.61979e-04  1.73249e-02 -9.22064e-03
       O  5.42968e-04 -1.40079e-02  8.88425e-03
       H -1.78581e-02  6.88467e-03 -4.42874e-03
       H  1.76242e-02  6.85101e-03 -4.90542e-03
       O  1.22093e-02 -5.62708e-03 -1.04712e-02
       H -1.45387e-02 -1.23222e-02  4.75290e-03
       H  2.76878e-03  1.85630e-02  5.14012e-03
       O -2.04419e-04 -1.45978e-02 -9.17937e-03
       H -1.76355e-02  7.05361e-03  4.43790e-03
       H  1.78157e-02  6.92895e-03  4.50929e-03
       O -1.23230e-02  7.03980e-03 -9.80729e-03
       H -2.80756e-03  2.12021e-03  1.89910e-02
       H  1.45166e-02 -8.77602e-03 -9.75829e-03
       O -1.26854e-02 -6.28299e-03 -9.38773e-03
       H -2.65597e-03 -1.74026e-03  1.91802e-02
       H  1.49591e-02  8.17197e-03 -9.73258e-03
       O -1.18629e-02 -7.36870e-03 -9.43794e-03
       H  1.48531e-02 -1.17967e-02  5.14851e-03
       H -2.71351e-03  1.86609e-02  4.43425e-03
       O  1.02290e-04  1.42726e-02  1.01240e-02
       H  2.24091e-04  3.36288e-03 -1.92164e-02
       H -4.44766e-04 -1.68982e-02  9.64067e-03
       O -1.24330e-02 -5.76361e-03  1.01398e-02
       H  1.45786e-02 -1.23345e-02 -4.79505e-03
       H -2.72054e-03  1.86444e-02 -4.95216e-03
       O  1.23936e-02 -6.16498e-03 -8.99838e-03
       H  2.91432e-03 -1.88308e-03  1.92464e-02
       H -1.49016e-02  7.94276e-03 -1.00713e-02
       O -8.95635e-05 -1.35290e-02  1.10182e-02
       H  3.16966e-04 -3.82961e-03 -1.91207e-02
       H -8.86976e-05  1.71859e-02  9.33703e-03
       O -1.25334e-02  7.04753e-03 -8.86164e-03
       H -2.96123e-03 -1.86894e-02  4.48144e-03
       H  1.48849e-02  1.20091e-02  4.33479e-03
       O -1.10212e-02 -7.67594e-03  1.03818e-02
       H  1.45933e-02 -1.17317e-02 -5.07439e-03
       H -3.28794e-03  1.86815e-02 -4.76645e-03
       O -1.31452e-02 -7.09760e-03 -9.09405e-03
       H -2.64147e-03 -1.58510e-03  1.91777e-02
       H  1.46763e-02  8.21639e-03 -9.97084e-03
       O -1.26659e-02  7.14296e-03  1.01923e-02
       H -3.01996e-03  1.42768e-03 -1.91238e-02
       H  1.49433e-02 -8.16856e-03  9.62858e-03
       O  1.22393e-02 -7.10010e-03  9.95596e-03
       H  3.17936e-03 -1.34984e-03 -1.90868e-02
       H -1.48889e-02  8.23088e-03  9.67544e-03
       O  1.24873e-02 -6.64918e-03  9.31798e-03
       H -1.48608e-02 -1.17355e-02 -4.46881e-03
       H  2.78655e-03  1.87359e-02 -5.14908e-03
       O  1.11517e-02  7.57746e-03  1.01510e-02
       H -1.47174e-02  1.18128e-02 -5.09037e-03
       H  3.24110e-03 -1.87611e-02 -4.63566e-03
       O  2.84972e-04 -1.51218e-02  9.40828e-03
       H -9.65083e-05 -3.03198e-03 -1.91630e-02
       H -5.20449e-05  1.69735e-02  9.81938e-03
       O  1.16418e-02 -7.87002e-03  9.24368e-03
       H  2.95500e-03 -1.48030e-03 -1.90695e-02
       H -1.45010e-02  8.95152e-03  9.81742e-03
       O -6.73139e-04  1.43307e-02  1.01149e-02
       H -1.73920e-02 -6.90449e-03 -4.56312e-03
       H  1.78137e-02 -6.63075e-03 -4.76562e-03
       O -4.68018e-04 -1.45416e-02  9.67689e-03
       H -1.74981e-02  7.07688e-03 -5.28936e-03
       H  1.75955e-02  7.21908e-03 -4.70233e-03
       O -1.11745e-03 -1.31199e-02  9.94823e-03
       H  5.05131e-04 -3.76941e-03 -1.91637e-02
       H  1.25375e-04  1.69783e-02  9.66215e-03
       O  1.26181e-02  7.41097e-03 -8.98532e-03
       H -1.49125e-02  1.20075e-02  4.64135e-03
       H  2.81437e-03 -1.89260e-02  4.26468e-03
       O  1.18676e-02  5.55862e-03 -9.92783e-03
       H  3.04798e-03  2.25656e-03  1.91601e-02
       H -1.47884e-02 -8.36424e-03 -9.63303e-03
       O -1.26040e-02 -5.90390e-03 -1.06498e-02
       H -2.75948e-03 -2.25444e-03  1.91654e-02
       H  1.50367e-02  8.45078e-03 -9.20993e-03
       O -1.30674e-02 -6.82254e-03 -1.02514e-02
       H  1.46740e-02 -1.20171e-02  4.98778e-03
       H -2.55608e-03  1.86906e-02  4.64773e-03
       O  6.59714e-04  1.34472e-02  1.03591e-02
       H -2.43565e-04  3.65502e-03 -1.92306e-02
       H  1.59650e-05 -1.68641e-02  9.44670e-03
       O -8.15954e-05  1.41776e-02  1.06882e-02
       H -1.74258e-02 -7.18143e-03 -4.85520e-03
       H  1.75136e-02 -6.60802e-03 -5.44031e-03
       O -1.16212e-02 -6.38989e-03 -9.38701e-03
       H -3.07026e-03 -1.77479e-03  1.93439e-02
       H  1.48946e-02  8.36450e-03 -9.81220e-03
       O -1.22517e-02  7.25608e-03  1.01823e-02
       H -3.23929e-03  1.20466e-03 -1.92795e-02
       H  1.47174e-02 -8.20010e-03  9.61184e-03
       O  1.20196e-02  7.68125e-03 -9.43691e-03
       H -1.48825e-02  1.17074e-02  5.16065e-03
       H  2.77740e-03 -1.87964e-02  4.51133e-03
       O  1.28751e-02  6.23478e-03 -9.26140e-03
       H  2.67333e-03  1.92557e-03  1.91827e-02
       H -1.50059e-02 -8.05274e-03 -9.85956e-03
       O  1.23443e-02  6.32313e-03  9.87675e-03
       H -1.44520e-02  1.23561e-02 -4.63762e-03
       H  3.05726e-03 -1.87458e-02 -4.68629e-03
       O  1.13037e-02 -8.10112e-03 -1.04070e-02
       H -1.48578e-02 -1.15091e-02  5.19329e-03
       H  3.33885e-03  1.86160e-02  4.74537e-03
       O  1.33722e-03  1.42777e-02  9.32886e-03
       H -1.78718e-04  3.36642e-03 -1.92607e-02
       H -5.66437e-04 -1.69902e-02  9.96540e-03
       O -2.69766e-04  1.37589e-02  1.03892e-02
       H -1.76048e-02 -7.27451e-03 -4.65612e-03
       H  1.77290e-02 -6.35595e-03 -5.31478e-03
       O -1.19004e-02  7.62375e-03  9.36653e-03
       H -2.81066e-03 -1.87650e-02 -4.52827e-03
       H  1.48585e-02  1.16818e-02 -5.18147e-03
       O -1.27377e-02  6.68721e-03  9.35907e-03
       H -2.70863e-03  1.68476e-03 -1.92396e-02
       H  1.49795e-02 -8.14073e-03  9.86853e-03
       O  1.25125e-02  6.73117e-03 -9.43216e-03
       H -1.50447e-02  1.18435e-02  4.71248e-03
       H  2.90152e-03 -1.85493e-02  5.12605e-03
       O  1.24325e-02  5.59700e-03 -1.03222e-02
       H  2.80703e-03  2.40129e-03  1.92370e-02
       H -1.48823e-02 -8.32450e-03 -9.51435e-03
       O  1.19270e-02  7.44749e-03  9.81721e-03
       H -1.48639e-02  1.19648e-02 -4.56175e-03
       H  3.40906e-03 -1.86410e-02 -4.77179e-03
       O  1.15287e-02 -8.08258e-03 -1.03054e-02
       H -1.46549e-02 -1.15265e-02  5.24391e-03
       H  3.12759e-03  1.87939e-02  4.96178e-03
       O  2.53750e-04  1.35159e-02  9.73228e-03
       H -1.82217e-05  3.41355e-03 -1.93201e-02
       H -9.96521e-05 -1.69925e-02  9.63939e-03
       O -1.03688e-03  1.42694e-02  1.05066e-02
       H -1.73265e-02 -7.05256e-03 -5.38319e-03
       H  1.75431e-02 -6.79081e-03 -4.83552e-03
       O  1.08180e-02 -7.48016e-03 -1.01120e-02
       H  3.49636e-03 -1.45482e-03  1.92136e-02
       H -1.46223e-02  8.57201e-03 -9.55958e-03
       O  1.28208e-02  7.56755e-03  9.12722e-03
       H  2.79272e-03  1.41366e-03 -1.91886e-02
       H -1.44489e-02 -8.45757e-03  9.97006e-03
       O  1.14189e-02  8.19598e-03 -1.04626e-02
       H -1.46626e-02  1.16146e-02  5.55870e-03
       H  3.18658e-03 -1.87285e-02  4.89266e-03
       O  1.20151e-02  5.87002e-03 -1.06199e-02
       H  2.85745e-03  2.20130e-03  1.92687e-02
       H -1.49848e-02 -8.47419e-03 -9.16423e-03
       O -1.17366e-02  7.17532e-03  1.04352e-02
       H -3.36355e-03 -1.85008e-02 -5.33484e-03
       H  1.49085e-02  1.16237e-02 -4.59598e-03
       O -1.26993e-02 -7.28745e-03 -9.09620e-03
       H  1.47440e-02 -1.19201e-02  4.48435e-03
       H -2.82096e-03  1.88570e-02  4.55530e-03
       O -8.48209e-04  1.36958e-02  9.07833e-03
       H  1.85859e-04  3.34385e-03 -1.91617e-02
       H  6.03326e-04 -1.67263e-02  9.88798e-03
       O  1.27068e-02 -6.61777e-03  1.00700e-02
       H -1.43986e-02 -1.20109e-02 -4.66612e-03
       H  2.65102e-03  1.88027e-02 -4.60103e-03
       O -1.11158e-02 -7.68576e-03 -1.01163e-02
       H -3.55006e-03 -1.16793e-03  1.91413e-02
       H  1.45602e-02  8.70141e-03 -9.58038e-03
       O -1.11755e-02  7.52419e-03  1.04304e-02
       H -3.39845e-03  1.33979e-03 -1.91771e-02
       H  1.48475e-02 -8.70123e-03  9.24913e-03
       O  1.16978e-02 -6.77965e-03  9.46595e-03
       H  3.12255e-03 -1.59859e-03 -1.91986e-02
       H -1.47299e-02  8.48403e-03  9.82890e-03
       O  1.18168e-02  7.18297e-03 -1.12903e-02
       H  3.30292e-03  1.66179e-03  1.90478e-02
       H -1.49038e-02 -8.67156e-03 -9.22116e-03
       O -1.22369e-02  7.06361e-03  1.07325e-02
       H -2.56344e-03 -1.86912e-02 -4.86543e-03
       H  1.44544e-02  1.18539e-02 -5.58892e-03
       O  4.95785e-05  1.37020e-02 -9.85847e-03
       H -1.76590e-02 -6.30854e-03  5.16630e-03
       H  1.76282e-02 -6.89919e-03  4.57977e-03
       O -1.27361e-02 -7.68330e-03  9.09251e-03
       H -2.69673e-03 -1.48647e-03 -1.91596e-02
       H  1.44740e-02  8.39862e-03  9.95990e-03
       O  1.27043e-03 -1.38198e-02 -1.05598e-02
       H -5.89517e-04 -3.48978e-03  1.92227e-02
       H -3.13483e-04  1.72077e-02 -9.40764e-03
       O -4.36786e-04  1.41408e-02 -1.00249e-02
       H -3.57794e-04  3.40844e-03  1.91452e-02
       H  5.25025e-04 -1.68159e-02 -9.66476e-03
       O  1.21799e-02 -6.45714e-03 -9.22625e-03
       H -1.47477e-02 -1.19811e-02  4.44793e-03
       H  2.92575e-03  1.85815e-02  4.98564e-03
       O -2.91401e-04 -1.41582e-02 -9.53754e-03
       H -1.76034e-02  6.87641e-03  5.15301e-03
       H  1.76734e-02  7.36270e-03  4.45155e-03
       O  1.26245e-02  6.99807e-03 -1.03312e-02
       H  2.53571e-03  2.12848e-03  1.89874e-02
       H -1.45825e-02 -8.86720e-03 -9.46356e-03
       O -1.48223e-04 -1.36058e-02  1.00460e-02
       H -1.75615e-02  6.86589e-03 -4.68853e-03
       H  1.77301e-02  6.30360e-03 -5.38895e-03
       O  1.19424e-02 -6.81705e-03 -9.65084e-03
       H -1.43549e-02 -1.22251e-02  5.04589e-03
       H  2.82454e-03  1.88979e-02  4.33749e-03
       O -7.69963e-04  1.38462e-02  8.96500e-03
       H  1.82566e-04  3.36996e-03 -1.91061e-02
       H  4.81078e-04 -1.68671e-02  9.96314e-03
       O  1.23141e-02 -7.08314e-03  8.92475e-03
       H -1.47653e-02 -1.20061e-02 -4.48635e-03
       H  2.95869e-03  1.87040e-02 -4.39888e-03
       O -4.84403e-04 -1.39881e-02  1.00441e-02
       H -1.77764e-02  6.78985e-03 -4.52352e-03
       H  1.78476e-02  6.40826e-03 -4.67064e-03
       O -1.21143e-02  6.78689e-03  9.60157e-03
       H -2.81191e-03  2.05990e-03 -1.90523e-02
       H  1.44343e-02 -8.70027e-03  9.80829e-03
       O -1.08934e-03 -1.38317e-02 -1.03161e-02
       H -1.73958e-02  6.86616e-03  5.10592e-03
       H  1.78461e-02  6.57959e-03  4.94285e-03
       O  1.26435e-02 -6.58415e-03  9.41138e-03
       H -1.45640e-02 -1.23380e-02 -4.66215e-03
       H  2.92501e-03  1.87143e-02 -4.42235e-03
       O  1.59291e-04  1.42237e-02 -1.00563e-02
       H -6.89687e-04  3.50848e-03  1.90888e-02
       H  4.38114e-04 -1.69100e-02 -9.63653e-03
       O -1.13144e-02  6.76159e-03  9.18024e-03
       H -3.12441e-03  1.77712e-03 -1.91366e-02
       H  1.47150e-02 -8.59856e-03  9.86681e-03
       O -4.14758e-04 -1.43515e-02 -9.87692e-03
       H -1.77245e-02  6.92048e-03  4.49280e-03
       H  1.78275e-02  6.47235e-03  4.82269e-03
       O -2.85864e-04 -1.39400e-02 -9.89941e-03
       H  7.20537e-05 -3.23330e-03  1.93324e-02
       H  1.00305e-04  1.72499e-02 -9.44150e-03
       O -1.27138e-02  7.22172e-03  9.06418e-03
       H -2.89439e-03 -1.88206e-02 -4.64449e-03
       H  1.47893e-02  1.18344e-02 -4.46895e-03
       O -1.22242e-02 -7.05637e-03 -1.07305e-02
       H  1.49657e-02 -1.15156e-02  4.76591e-03
       H -3.03026e-03  1.84163e-02  5.63151e-03
       O -1.18734e-05 -1.43015e-02 -8.57649e-03
       H -1.78694e-02  6.82924e-03  4.28355e-03
       H  1.78637e-02  6.68346e-03  4.40758e-03
       O  1.26536e-02 -6.67718e-03  1.01916e-02
       H -1.45907e-02 -1.22040e-02 -4.80009e-03
       H  2.88512e-03  1.86285e-02 -4.62325e-03
       O -1.12555e-02 -7.46264e-03 -1.03399e-02
       H -3.40522e-03 -1.56997e-03  1.91818e-02
       H  1.46844e-02  8.69990e-03 -9.56130e-03
       O -1.18685e-02  5.67953e-03  1.00737e-02
       H -3.12104e-03  2.18336e-03 -1.91783e-02
       H  1.48419e-02 -8.37888e-03  9.60092e-03
       O  1.29252e-04 -1.41125e-02 -1.01251e-02
       H -1.77253e-02  6.59215e-03  5.37119e-03
       H  1.75241e-02  7.13195e-03  4.49151e-03
       O -1.27816e-02 -6.70587e-03  1.00446e-02
       H  1.43770e-02 -1.20486e-02 -4.76619e-03
       H -2.78923e-03  1.86942e-02 -4.84826e-03
       O  7.58031e-05  1.38813e-02 -9.57344e-03
       H  2.89450e-04  3.51174e-03  1.91050e-02
       H -2.96280e-04 -1.68959e-02 -9.83805e-03
       O  1.11159e-02  6.73214e-03  1.08463e-02
       H  3.44530e-03  1.98606e-03 -1.92047e-02
       H -1.46302e-02 -8.54590e-03  9.34520e-03
       O -1.12844e-02 -7.29308e-03  1.02205e-02
       H -3.41225e-03 -1.65981e-03 -1.92032e-02
       H  1.47128e-02  8.52709e-03  9.59985e-03
       O -1.13469e-02  7.64218e-03 -1.01829e-02
       H -3.33535e-03  1.30060e-03  1.91609e-02
       H  1.47207e-02 -8.72218e-03 -9.55172e-03
       O  2.21547e-04  1.35435e-02 -9.60608e-03
       H -6.63173e-05  3.45715e-03  1.93596e-02
       H  5.23901e-05 -1.70365e-02 -9.80826e-03
       O -1.88404e-05  1.37114e-02 -1.03827e-02
       H -1.74483e-02 -6.84010e-03  4.59809e-03
       H  1.76624e-02 -6.57734e-03  5.35034e-03
       O -1.20411e-02  6.84209e-03 -1.05971e-02
       H -2.54297e-03 -1.88823e-02  4.71278e-03
       H  1.43875e-02  1.19735e-02  5.51534e-03
       O -2.45124e-04 -1.38802e-02 -9.77217e-03
       H  3.54915e-04 -3.61037e-03  1.90267e-02
       H -1.81817e-04  1.70038e-02 -9.72535e-03
       O  1.17712e-02  6.78507e-03  1.01841e-02
       H -1.42621e-02  1.20194e-02 -5.34441e-03
       H  2.70194e-03 -1.87474e-02 -4.50532e-03
       O -5.85562e-04  1.40254e-02 -9.48905e-03
       H -1.77433e-02 -6.66624e-03  4.56558e-03
       H  1.78831e-02 -6.25093e-03  4.54147e-03
       O -1.23166e-02 -7.25147e-03  9.95833e-03
       H -2.90367e-03 -1.85169e-03 -1.90243e-02
       H  1.44627e-02  8.78486e-03  9.66301e-03
       O -1.22321e-03  1.34112e-02  1.03920e-02
       H -1.74163e-02 -6.81801e-03 -5.21670e-03
       H  1.79142e-02 -6.37809e-03 -4.89948e-03
       O  1.19558e-02  6.98719e-03  1.03734e-02
       H -1.44213e-02  1.20491e-02 -5.61326e-03
       H  2.70499e-03 -1.87209e-02 -4.56077e-03
       O  1.20377e-02  5.95885e-03  1.04941e-02
       H  3.08924e-03  2.14778e-03 -1.93972e-02
       H -1.47858e-02 -8.40424e-03  9.53716e-03
       O  1.25713e-02  7.37242e-03 -8.98476e-03
       H -1.49173e-02  1.17771e-02  4.57738e-03
       H  2.93765e-03 -1.86801e-02  4.46545e-03
       O  1.28878e-02  6.77620e-03 -9.61964e-03
       H  2.81357e-03  1.58581e-03  1.92320e-02
       H -1.49946e-02 -8.21678e-03 -9.62433e-03
       O  4.65622e-05  1.31647e-02 -9.38143e-03
       H  5.95597e-05  3.48459e-03  1.92587e-02
       H -1.75017e-05 -1.70038e-02 -9.75343e-03
       O -1.29753e-03  1.37823e-02 -1.01809e-02
       H -1.73657e-02 -6.85980e-03  5.30046e-03
       H  1.77777e-02 -6.48957e-03  4.76572e-03
       O -1.19499e-02  7.71533e-03 -1.02435e-02
       H -3.28100e-03 -1.86265e-02  4.78426e-03
       H  1.48138e-02  1.17725e-02  4.71528e-03
       O -1.20106e-02 -7.68863e-03  9.48061e-03
       H  1.48214e-02 -1.19385e-02 -4.36774e-03
       H -3.51016e-03  1.87378e-02 -4.68742e-03
       O  1.19386e-02  7.16670e-03  1.03569e-02
       H -1.48294e-02  1.15891e-02 -4.83203e-03
       H  3.21756e-03 -1.83765e-02 -5.41518e-03
       O  1.17364e-02  5.89990e-03  9.98956e-03
       H  3.02956e-03  2.41580e-03 -1.90731e-02
       H -1.48037e-02 -8.41425e-03  9.61687e-03
       O -1.15071e-02  7.74094e-03 -1.01208e-02
       H -3.20127e-03 -1.86442e-02  4.78764e-03
       H  1.46258e-02  1.16707e-02  5.02750e-03
       O -1.18919e-02 -7.69456e-03  9.92787e-03
       H  1.48644e-02 -1.17799e-02 -4.59525e-03
       H -3.39444e-03  1.85848e-02 -4.64292e-03
       O  1.08999e-02 -7.33544e-03 -1.00043e-02
       H  3.57104e-03 -1.29612e-03  1.91825e-02
       H -1.46012e-02  8.52713e-03 -9.65100e-03
       O  1.25559e-02  5.91621e-03  8.93507e-03
       H  2.79267e-03  1.82452e-03 -1.90452e-02
       H -1.47618e-02 -8.03576e-03  9.94566e-03
       O  1.29804e-02 -7.32498e-03  8.79327e-03
       H  2.63285e-03 -1.72982e-03 -1.90682e-02
       H -1.44833e-02  8.26862e-03  1.02040e-02
       O  7.95586e-05 -1.30605e-02 -1.07531e-02
       H  9.67362e-05 -4.03685e-03  1.90661e-02
       H -5.98931e-05  1.70410e-02 -9.42222e-03
       O -1.25306e-02  6.63437e-03  1.00811e-02
       H -2.81827e-03 -1.85327e-02 -4.55486e-03
       H  1.46324e-02  1.19535e-02 -4.73974e-03
       O  4.61237e-04  1.44606e-02 -9.83866e-03
       H -1.77723e-02 -6.49587e-03  4.81039e-03
       H  1.76268e-02 -7.01701e-03  4.47486e-03
       O  1.21087e-02 -7.47883e-03  9.88417e-03
       H  2.83062e-03 -2.00828e-03 -1.90722e-02
       H -1.43764e-02  8.92080e-03  9.70837e-03
       O  6.17026e-04  1.38810e-02  9.83287e-03
       H -1.79622e-02 -6.15487e-03 -4.72738e-03
       H  1.77278e-02 -6.84530e-03 -4.38773e-03
       O -1.24436e-02  6.33161e-03  9.74691e-03
       H -2.94286e-03 -1.87423e-02 -4.38672e-03
       H  1.43582e-02  1.24706e-02 -4.68199e-03
       O -1.07278e-04 -1.45032e-02  8.70263e-03
       H -6.54440e-05 -3.19644e-03 -1.91389e-02
       H -2.68407e-05  1.66383e-02  1.01156e-02
       O -1.16806e-02  7.47319e-03 -8.94298e-03
       H -3.01911e-03 -1.88552e-02  4.25644e-03
       H  1.46503e-02  1.18832e-02  5.02041e-03
       O -1.23299e-02  7.40045e-03 -1.01640e-02
       H -3.21039e-03  1.25669e-03  1.89551e-02
       H  1.48200e-02 -8.24108e-03 -9.55627e-03
       O -1.19039e-02 -6.89663e-03 -9.75736e-03
       H -2.84363e-03 -2.20687e-03  1.90828e-02
       H  1.44786e-02  8.74259e-03 -9.81707e-03
       O  1.04551e-03  1.35011e-02 -9.94705e-03
       H -1.76935e-02 -6.52201e-03  4.59475e-03
       H  1.74935e-02 -6.77392e-03  5.20312e-03
       O  1.21246e-02  7.97370e-03 -1.02418e-02
       H -1.49605e-02  1.15944e-02  4.67157e-03
       H  3.27590e-03 -1.87108e-02  4.85051e-03
       O  1.24269e-02 -5.63397e-03  1.00375e-02
       H -1.46841e-02 -1.22997e-02 -4.48981e-03
       H  2.88426e-03  1.84660e-02 -5.28493e-03
       O -1.23257e-02  5.70593e-03  1.01357e-02
       H -2.70673e-03 -1.84962e-02 -5.18508e-03
       H  1.44015e-02  1.22016e-02 -4.67756e-03
       O  1.43038e-03 -1.41408e-02  9.08519e-03
       H -3.36477e-04 -3.40231e-03 -1.91187e-02
       H -6.39178e-04  1.67757e-02  1.00344e-02
       O -1.21202e-02 -7.14655e-03  1.02722e-02
       H -3.23745e-03 -1.26212e-03 -1.91595e-02
       H  1.49960e-02  8.28804e-03  9.36702e-03
       O -1.13294e-02  6.49065e-03 -9.39674e-03
       H -3.14734e-03  1.65652e-03  1.93806e-02
       H  1.46464e-02 -8.42696e-03 -9.79124e-03
       O  1.21546e-02 -6.55309e-03 -1.15743e-02
       H  3.19414e-03 -1.98034e-03  1.91932e-02
       H -1.50039e-02  8.52285e-03 -8.94758e-03
       O  1.28767e-02 -7.23425e-03 -9.18744e-03
       H -1.48326e-02 -1.19061e-02  4.51736e-03
       H  2.79254e-03  1.88772e-02  4.65377e-03
       O -1.21751e-02 -6.78629e-03  9.89574e-03
       H -2.85265e-03 -1.74417e-03 -1.93030e-02
       H  1.49947e-02  8.56166e-03  9.45591e-03
       O -1.26916e-02 -7.15341e-03  8.94786e-03
       H  1.48012e-02 -1.18691e-02 -4.50093e-03
       H -2.75743e-03  1.87704e-02 -4.51745e-03
       O  1.28040e-02  6.65167e-03  9.62686e-03
       H -1.51447e-02  1.16844e-02 -4.59070e-03
       H  2.52551e-03 -1.85883e-02 -5.16765e-03
       O  1.22270e-02  7.06058e-03  9.91048e-03
       H  2.74301e-03  1.93770e-03 -1.90111e-02
       H -1.45485e-02 -8.79680e-03  9.64420e-03
       O -1.15074e-02 -7.67202e-03  8.94890e-03
       H -3.09322e-03 -1.47378e-03 -1.91454e-02
       H  1.43657e-02  8.79798e-03  1.00269e-02
       O  1.19255e-03  1.32967e-02  1.02665e-02
       H -1.78592e-02 -6.44044e-03 -4.58807e-03
       H  1.73559e-02 -6.75902e-03 -5.08375e-03
       O  3.73718e-04  1.43027e-02 -9.98376e-03
       H -4.44677e-04  3.40132e-03  1.91241e-02
       H  3.41298e-04 -1.69281e-02 -9.64689e-03
       O -1.25448e-02  6.66983e-03  9.44148e-03
       H -2.81854e-03  1.69520e-03 -1.92914e-02
       H  1.47583e-02 -8.22274e-03  9.78075e-03
       O -1.27666e-02  6.67138e-03 -1.00001e-02
       H -2.77014e-03 -1.85883e-02  4.63000e-03
       H  1.44928e-02  1.21151e-02  4.90155e-03
       O -1.16233e-02  5.94096e-03 -1.00557e-02
       H -3.06414e-03  2.27544e-03  1.92210e-02
       H  1.46965e-02 -8.33916e-03 -9.60282e-03
       O  1.15343e-02  6.70341e-03  1.03339e-02
       H -1.47138e-02  1.18727e-02 -4.47429e-03
       H  3.30420e-03 -1.85053e-02 -5.30642e-03
       O  1.28351e-02 -6.67678e-03 -1.00124e-02
       H -1.44807e-02 -1.20820e-02  4.77503e-03
       H  2.73901e-03  1.86218e-02  4.81319e-03
       O -3.41283e-04  1.48795e-02  9.12868e-03
       H  1.13404e-04  3.02753e-03 -1.92116e-02
       H -7.83802e-05 -1.67562e-02  9.96501e-03
       O -1.17176e-02 -6.82997e-03  1.00910e-02
       H  1.48182e-02 -1.19203e-02 -4.58577e-03
       H -3.34735e-03  1.84977e-02 -5.21651e-03
       O  1.13145e-02 -7.26970e-03 -1.01645e-02
       H  3.32692e-03 -1.74358e-03  1.92125e-02
       H -1.46110e-02  8.52682e-03 -9.64622e-03
       O -3.02296e-04 -1.38547e-02  1.13323e-02
       H  1.64519e-04 -3.55608e-03 -1.90616e-02
       H  1.29639e-04  1.72642e-02  8.99676e-03
       O  1.30776e-03 -1.40179e-02 -1.02703e-02
       H -1.76835e-02  6.58941e-03  4.72423e-03
       H  1.74640e-02  7.07603e-03  5.53775e-03
       O -1.38478e-03 -1.35066e-02 -1.04579e-02
       H  5.80648e-04 -3.67137e-03  1.93343e-02
       H  3.32408e-04  1.70507e-02 -9.45212e-03
       O -1.10452e-04 -1.46150e-02  9.06590e-03
       H -1.77802e-02  6.99545e-03 -4.59979e-03
       H  1.77255e-02  6.75693e-03 -4.49783e-03
       O -1.22648e-02 -5.69990e-03 -1.02523e-02
       H  1.43906e-02 -1.21876e-02  4.71718e-03
       H -2.81644e-03  1.84788e-02  5.18574e-03
       O -1.24386e-02 -5.72948e-03  1.02570e-02
       H -2.83490e-03 -2.23496e-03 -1.92502e-02
       H  1.48386e-02  8.35379e-03  9.57388e-03
       O -1.29682e-02 -7.41518e-03  9.44472e-03
       H  1.50417e-02 -1.17611e-02 -4.73508e-03
       H -2.71348e-03  1.88377e-02 -4.64065e-03
       O -1.51291e-04 -1.34559e-02  1.00194e-02
       H -1.75232e-02  6.35882e-03 -5.31474e-03
       H  1.77317e-02  6.98499e-03 -4.52442e-03
       O  1.16918e-02  7.60890e-03  9.05767e-03
       H  2.98165e-03  1.53702e-03 -1.92048e-02
       H -1.45413e-02 -8.92060e-03  1.00275e-02
       O -1.18948e-02  6.95444e-03 -1.05203e-02
       H -3.12337e-03 -1.85312e-02  5.48865e-03
       H  1.47839e-02  1.15640e-02  4.64128e-03
       O  6.01248e-04 -1.41202e-02 -9.26650e-03
       H -5.38227e-05 -3.38277e-03  1.91619e-02
       H -3.72863e-04  1.69046e-02 -9.94125e-03
       O  1.07335e-03 -1.36330e-02  1.01513e-02
       H -1.77888e-02  6.54551e-03 -4.83667e-03
       H  1.74284e-02  6.89377e-03 -5.13079e-03
       O -1.21072e-02 -5.80978e-03 -1.02237e-02
       H  1.45473e-02 -1.22042e-02  4.64085e-03
       H -2.81667e-03  1.86546e-02  5.12663e-03
       O -1.16577e-02 -6.83578e-03  1.09862e-02
       H -3.25853e-03 -1.81035e-03 -1.91281e-02
       H  1.46940e-02  8.62397e-03  9.30605e-03
       O -1.14170e-02  6.40067e-03 -1.06823e-02
       H -3.39572e-03  1.94069e-03  1.90599e-02
       H  1.47296e-02 -8.45130e-03 -9.46118e-03
       O  1.29253e-02 -7.78855e-03 -9.47101e-03
       H  2.63456e-03 -1.44550e-03  1.91648e-02
       H -1.46532e-02  8.53356e-03 -9.63631e-03
       O  1.24671e-02 -7.17086e-03 -8.86543e-03
       H -1.48817e-02 -1.21523e-02  4.52398e-03
       H  3.00414e-03  1.88685e-02  4.22977e-03
       O  8.10605e-04  1.30765e-02  1.00026e-02
       H -4.81167e-04  3.82282e-03 -1.91929e-02
       H -5.21202e-06 -1.69586e-02  9.67514e-03
       O -7.40227e-04  1.44171e-02  9.96531e-03
       H -1.75944e-02 -7.04349e-03 -4.80076e-03
       H  1.78058e-02 -6.48445e-03 -4.72891e-03
       O -5.48127e-04 -1.44053e-02  9.89562e-03
       H -1.76000e-02  6.97944e-03 -4.48829e-03
       H  1.78435e-02  6.49828e-03 -4.81333e-03
       O -9.18758e-04 -1.37613e-02  9.07482e-03
       H  3.21274e-04 -3.46226e-03 -1.92372e-02
       H  4.42248e-04  1.68864e-02  9.99572e-03
       O  1.25231e-02  5.93184e-03 -9.72618e-03
       H -1.46674e-02  1.22197e-02  4.61900e-03
       H  2.79331e-03 -1.86099e-02  5.01771e-03
       O  1.14233e-02 -7.89036e-03  1.05134e-02
       H -1.46013e-02 -1.17316e-02 -5.21901e-03
       H  3.18282e-03  1.87739e-02 -4.83615e-03
       O  1.16466e-02 -6.78569e-03 -1.09119e-02
       H  3.44479e-03 -1.87310e-03  1.91448e-02
       H -1.47666e-02  8.62693e-03 -9.46858e-03
       O  1.19801e-02  6.29809e-03  1.09752e-02
       H  3.21924e-03  2.15528e-03 -1.91895e-02
       H -1.48794e-02 -8.45398e-03  9.35300e-03
       O  1.07114e-02 -7.57825e-03  1.00359e-02
       H  3.49085e-03 -1.37377e-03 -1.91582e-02
       H -1.45549e-02  8.64909e-03  9.59715e-03
       O  1.27649e-02  6.51005e-03 -9.19534e-03
       H  2.75529e-03  1.64369e-03  1.91474e-02
       H -1.48435e-02 -8.03565e-03 -9.86845e-03
       O  1.10515e-03  1.38973e-02 -9.01966e-03
       H -6.97359e-05  3.41081e-03  1.91347e-02
       H -6.05141e-04 -1.68757e-02 -9.99204e-03
       O -3.90392e-04  1.43736e-02 -9.64108e-03
       H -1.75377e-02 -7.07489e-03  5.20260e-03
       H  1.75783e-02 -7.16929e-03  4.61261e-03
       O -1.15886e-02  7.44482e-03 -9.13314e-03
       H -3.02005e-03 -1.90090e-02  4.40951e-03
       H  1.47620e-02  1.18190e-02  4.81628e-03
       O -1.15204e-02  7.48136e-03 -1.06247e-02
       H -3.24487e-03  1.47925e-03  1.91981e-02
       H  1.47748e-02 -8.80435e-03 -9.34125e-03
       O  2.09210e-05  1.41077e-02 -1.00205e-02
       H  3.54066e-04  3.34984e-03  1.90233e-02
       H -4.11075e-04 -1.70653e-02 -9.57737e-03
       O -1.17583e-02 -6.73893e-03 -1.02198e-02
       H  1.42955e-02 -1.21126e-02  5.44789e-03
       H -2.77716e-03  1.87457e-02  4.56268e-03
576
# CELL(abcABC):   34.06844    44.25621    27.81677    90.00000    90.00000    90.00000  Step:           1  Bead:       0 forces{atomic_unit}  cell{atomic_unit}
       O -1.34118e-04  1.43501e-02  1.01958e-02
       H  4.07183e-03 -8.11899e-03 -5.59025e-03
       H -3.58629e-03 -7.38251e-03 -5.50608e-03
       O  1.26858e-02 -7.12200e-03  1.02650e-02
       H -4.55046e-03  2.49176e-03 -8.13135e-03
       H -9.47316e-03  5.40172e-03 -2.13684e-03
       O -1.27251e-02  7.29004e-03  9.98313e-03
       H  4.57272e-03 -2.93738e-03 -8.68376e-03
       H  9.11043e-03 -4.77556e-03 -2.23754e-03
       O  8.17856e-05 -1.46957e-02  9.85521e-03
       H  4.16902e-03  8.19033e-03 -5.68966e-03
       H -3.33907e-03  7.09015e-03 -4.80542e-03
       O -1.27924e-02 -7.33324e-03  9.69725e-03
       H  8.16287e-03  3.84999e-04 -5.64728e-03
       H  5.01527e-03  7.16113e-03 -4.84211e-03
       O -1.07092e-03  1.45734e-02  1.01862e-02
       H  2.74037e-04 -5.16924e-03 -7.90763e-03
       H  5.95409e-04 -1.02458e-02 -2.29913e-03
       O  1.25811e-02 -7.38930e-03 -9.75463e-03
       H -4.99538e-03  7.71655e-03  5.68044e-03
       H -7.72820e-03  8.04027e-04  4.60201e-03
       O  1.29199e-02  7.35656e-03  1.01130e-02
       H -9.45962e-03 -2.30593e-04 -5.77093e-03
       H -4.39079e-03 -6.49270e-03 -4.60727e-03
       O -1.21963e-02  8.22495e-03 -1.03815e-02
       H  4.51095e-03 -3.32364e-03  9.14224e-03
       H  8.02360e-03 -4.70843e-03  2.04387e-03
       O -1.26836e-02  7.30430e-03 -1.08535e-02
       H  8.66337e-03 -1.22621e-04  5.77958e-03
       H  4.43678e-03 -6.89247e-03  4.85995e-03
       O  1.30194e-02  6.62242e-03  1.03428e-02
       H -4.96401e-03 -2.54973e-03 -8.93519e-03
       H -7.98137e-03 -4.62037e-03 -2.24008e-03
       O  9.89346e-04  1.48075e-02 -1.02900e-02
       H -3.86248e-04 -5.64015e-03  8.99699e-03
       H -1.27223e-04 -9.39641e-03  2.17529e-03
       O -1.30975e-02  6.62038e-03 -1.02535e-02
       H  4.95675e-03 -2.51913e-03  8.84054e-03
       H  7.98395e-03 -4.68743e-03  2.25843e-03
       O -8.79000e-04  1.47240e-02  1.04068e-02
       H  3.30457e-04 -5.61930e-03 -9.12890e-03
       H  4.20426e-05 -9.31003e-03 -2.06487e-03