1296
# CELL(abcABC):   51.10267    44.25621    41.72515    90.00000    90.00000    90.00000  Step:           0  Bead:       0 forces{atomic_unit}  cell{atomic_unit}
       O -1.24742e-03  1.41709e-02  9.17478e-03
       H  2.68638e-04  3.31603e-03 -1.91983e-02
       H  5.01748e-04 -1.68068e-02  9.97101e-03
       O  1.17899e-02 -7.62626e-03  9.72995e-03
       H -1.46956e-02 -1.18856e-02 -4.53125e-03
       H  3.34082e-03  1.87180e-02 -4.64117e-03
       O -1.25940e-04 -1.38478e-02  1.05625e-02
       H -1.76100e-02  7.19455e-03 -4.77656e-03
       H  1.75657e-02  6.44583e-03 -5.43441e-03
       O -1.21890e-02  6.89795e-03  1.00658e-02
       H -2.80045e-03  2.23123e-03 -1.90551e-02
       H  1.46277e-02 -8.77075e-03  9.60795e-03
       O -1.10410e-03 -1.37191e-02 -1.04118e-02
       H -1.73248e-02  6.81726e-03  5.16313e-03
       H  1.77070e-02  6.65007e-03  4.77060e-03
       O  1.15987e-02  8.21278e-03 -9.26423e-03
       H  3.00362e-03  1.44581e-03  1.91733e-02
       H -1.44073e-02 -8.91853e-03 -9.98607e-03
       O -3.63233e-04  1.35776e-02 -9.54858e-03
       H -7.25022e-05  3.46927e-03  1.93103e-02
       H  1.11815e-04 -1.70163e-02 -9.74490e-03
       O  4.07767e-06  1.37709e-02 -1.04010e-02
       H -1.75105e-02 -6.38804e-03  5.43053e-03
       H  1.76729e-02 -7.21224e-03  4.63677e-03
       O  1.21483e-02  7.66489e-03 -9.85667e-03
       H -1.47393e-02  1.17728e-02  4.50322e-03
       H  3.27836e-03 -1.87207e-02  4.86093e-03
       O  1.25244e-02 -6.55771e-03  9.63551e-03
       H -1.44193e-02 -1.23564e-02 -4.65814e-03
       H  2.98474e-03  1.87348e-02 -4.61131e-03
       O -1.24823e-02  6.74475e-03  9.27851e-03
       H -2.81787e-03 -1.85450e-02 -5.07045e-03
       H  1.50205e-02  1.17100e-02 -4.56023e-03
       O -1.24621e-02  6.30596e-03  8.87734e-03
       H -2.85789e-03  1.79422e-03 -1.91330e-02
       H  1.49255e-02 -8.05232e-03  1.00278e-02
       O -1.17432e-03 -1.36548e-02 -1.00807e-02
       H -1.76069e-02  6.79585e-03  5.33569e-03
       H  1.79104e-02  6.61404e-03  4.52619e-03
       O  1.25562e-02  6.62929e-03 -1.00805e-02
       H  2.73881e-03  2.21431e-03  1.90806e-02
       H -1.45017e-02 -8.70164e-03 -9.59508e-03
       O  1.23146e-02  7.16126e-03  8.90135e-03
       H -1.48324e-02  1.19147e-02 -4.44014e-03
       H  2.99112e-03 -1.88123e-02 -4.49332e-03
       O  1.14085e-02 -7.88845e-03 -9.77894e-03
       H -1.47097e-02 -1.18735e-02  5.00505e-03
       H  3.32900e-03  1.88424e-02  4.53554e-03
       O  1.22355e-03  1.38436e-02  8.99223e-03
       H -1.31080e-04  3.24397e-03 -1.91433e-02
       H -6.52004e-04 -1.67764e-02  9.90359e-03
       O  5.20423e-06  1.44555e-02  9.19967e-03
       H -1.78352e-02 -7.04942e-03 -4.51540e-03
       H  1.76043e-02 -6.89329e-03 -4.42600e-03
       O -6.50564e-04 -1.42907e-02  1.02049e-02
       H -1.75601e-02  6.89567e-03 -4.70220e-03
       H  1.78146e-02  6.55177e-03 -4.76206e-03
       O -9.55770e-04 -1.39860e-02  9.35268e-03
       H  1.61759e-04 -3.16350e-03 -1.91405e-02
       H  5.03698e-04  1.69865e-02  9.73790e-03
       O  8.39809e-04  1.35620e-02  1.03170e-02
       H -3.45155e-04  3.48066e-03 -1.91481e-02
       H -1.00419e-04 -1.73264e-02  9.28304e-03
       O -1.11616e-02  6.62151e-03 -1.07141e-02
       H -3.46050e-03  2.05359e-03  1.90360e-02
       H  1.46930e-02 -8.43613e-03 -9.41054e-03
       O -3.90152e-04 -1.38105e-02  8.98735e-03
       H -1.77407e-02  6.90268e-03 -4.73210e-03
       H  1.77355e-02  6.87937e-03 -4.40739e-03
       O  1.25548e-02 -6.49956e-03 -9.75321e-03
       H -1.44524e-02 -1.24523e-02  4.71578e-03
       H  2.93774e-03  1.87706e-02  4.44481e-03
       O  1.19505e-02  6.77491e-03 -9.90633e-03
       H -1.44617e-02  1.21402e-02  5.20403e-03
       H  2.80906e-03 -1.87338e-02  4.60022e-03
       O -6.45465e-04  1.39335e-02  9.86915e-03
       H -1.75720e-02 -6.79631e-03 -4.57330e-03
       H  1.78621e-02 -6.31660e-03 -4.75208e-03
       O -1.24691e-02  6.64030e-03  9.47495e-03
       H -2.62526e-03 -1.88647e-02 -5.03285e-03
       H  1.48719e-02  1.17995e-02 -4.50003e-03
       O -2.06012e-04 -1.45324e-02  8.71831e-03
       H  1.63813e-05 -3.21591e-03 -1.91057e-02
       H -1.91077e-05  1.68354e-02  1.01470e-02
       O  1.11487e-02  7.77528e-03 -1.00514e-02
       H -1.46352e-02  1.17467e-02  5.15066e-03
       H  3.30033e-03 -1.87470e-02  4.47545e-03
       O -9.47197e-04 -1.40666e-02 -9.37212e-03
       H  1.71414e-04 -3.16370e-03  1.92153e-02
       H  4.95254e-04  1.69910e-02 -9.77834e-03
       O -1.20913e-02 -7.48450e-03 -9.93478e-03
       H -2.81065e-03 -1.99397e-03  1.90472e-02
       H  1.43167e-02  8.93715e-03 -9.75919e-03
       O -2.54802e-04  1.43796e-02 -9.20023e-03
       H -1.76542e-02 -7.06705e-03  4.42150e-03
       H  1.77613e-02 -6.76589e-03  4.49146e-03
       O  4.38640e-04 -1.41123e-02 -9.14291e-03
       H -1.75970e-02  7.02475e-03  4.27465e-03
       H  1.77026e-02  6.97049e-03  5.18226e-03
       O -5.79027e-05 -1.36439e-02 -9.64481e-03
       H -3.49704e-05 -3.41557e-03  1.93549e-02
       H  2.92936e-06  1.71374e-02 -9.69469e-03
       O -3.27042e-05  1.41783e-02 -1.01757e-02
       H -4.73135e-04  3.30645e-03  1.91198e-02
       H  5.52886e-04 -1.71186e-02 -9.39868e-03
       O  1.21764e-02 -6.35235e-03 -9.37193e-03
       H -1.48005e-02 -1.19879e-02  4.59836e-03
       H  2.79255e-03  1.87179e-02  5.03167e-03
       O -1.20505e-02 -6.15091e-03  1.02408e-02
       H -3.08450e-03 -2.10916e-03 -1.91558e-02
       H  1.47343e-02  8.46079e-03  9.63528e-03
       O -1.30133e-02 -6.77096e-03  1.03660e-02
       H  1.45173e-02 -1.19701e-02 -4.97869e-03
       H -2.52111e-03  1.87072e-02 -4.74027e-03
       O -1.28917e-03 -1.36293e-02  1.00727e-02
       H -1.73814e-02  6.85484e-03 -5.19158e-03
       H  1.78832e-02  6.63417e-03 -4.62794e-03
       O  1.17278e-02  7.82362e-03  9.51824e-03
       H  2.89056e-03  1.42921e-03 -1.92568e-02
       H -1.45912e-02 -8.97529e-03  9.55054e-03
       O -1.15537e-02 -7.51412e-03  8.98797e-03
       H -2.90812e-03 -1.58779e-03 -1.91608e-02
       H  1.42347e-02  8.79075e-03  9.92478e-03
       O -1.07312e-02  7.47062e-03 -1.02082e-02
       H -3.48237e-03  1.41564e-03  1.92659e-02
       H  1.45984e-02 -8.65159e-03 -9.51704e-03
       O  1.14413e-02  7.79771e-03  1.04301e-02
       H -1.46303e-02  1.15430e-02 -5.17491e-03
       H  3.08664e-03 -1.86193e-02 -4.77886e-03
       O  1.24302e-02 -7.10019e-03 -8.97207e-03
       H -1.49078e-02 -1.19523e-02  4.35205e-03
       H  3.08277e-03  1.87630e-02  4.51100e-03
       O -1.27845e-02  5.87986e-03 -1.02036e-02
       H -2.69450e-03 -1.85471e-02  5.45204e-03
       H  1.46238e-02  1.20872e-02  4.80294e-03
       O -1.76024e-04  1.40219e-02  1.04173e-02
       H -1.75648e-02 -7.07342e-03 -4.91172e-03
       H  1.75895e-02 -6.49793e-03 -5.41936e-03
       O -1.25594e-02 -6.68129e-03 -9.98498e-03
       H -3.13909e-03 -1.43113e-03  1.90925e-02
       H  1.49829e-02  7.98423e-03 -9.70600e-03
       O -1.19758e-02  8.14896e-03  9.28379e-03
       H -2.83823e-03  1.29575e-03 -1.93157e-02
       H  1.44647e-02 -9.05548e-03  9.90787e-03
       O -1.16473e-02 -7.65654e-03  8.98293e-03
       H -2.92939e-03 -1.45842e-03 -1.91122e-02
       H  1.43285e-02  8.80087e-03  9.96242e-03
       O -1.19077e-02  6.84001e-03 -9.96953e-03
       H -3.32699e-03  1.39904e-03  1.91890e-02
       H  1.48030e-02 -8.07754e-03 -9.64049e-03
       O  1.10678e-02  7.57193e-03  1.02899e-02
       H -1.45931e-02  1.17899e-02 -5.03943e-03
       H  3.27360e-03 -1.86179e-02 -4.68998e-03
       O  1.22068e-02 -7.67279e-03 -1.00497e-02
       H -1.47733e-02 -1.17136e-02  4.63973e-03
       H  3.26000e-03  1.86178e-02  4.94329e-03
       O  1.21892e-02  6.46463e-03 -9.31201e-03
       H -1.49133e-02  1.18663e-02  4.41527e-03
       H  3.01656e-03 -1.87155e-02  5.21061e-03
       O  1.18587e-02 -6.99271e-03  9.92930e-03
       H -1.48235e-02 -1.17810e-02 -4.61437e-03
       H  3.36707e-03  1.85510e-02 -5.29436e-03
       O  1.14496e-02 -7.69667e-03 -9.02648e-03
       H  3.01556e-03 -1.77600e-03  1.90979e-02
       H -1.44637e-02  8.83160e-03 -1.00313e-02
       O  4.15342e-04 -1.35391e-02  1.09550e-02
       H -9.95955e-05 -3.77544e-03 -1.90322e-02
       H -7.02096e-05  1.70564e-02  9.35399e-03
       O -7.09591e-04 -1.46564e-02 -1.01834e-02
       H -1.74447e-02  7.13979e-03  4.71812e-03
       H  1.77252e-02  6.75116e-03  4.84666e-03
       O -8.49047e-04 -1.42541e-02 -9.24986e-03
       H -5.87664e-05 -3.21795e-03  1.92090e-02
       H  5.66889e-04  1.68089e-02 -9.94184e-03
       O  1.23114e-02 -6.29721e-03 -1.04864e-02
       H  2.81295e-03 -1.99664e-03  1.91293e-02
       H -1.49510e-02  8.39874e-03 -9.36586e-03
       O  1.18430e-02 -7.05896e-03 -1.05170e-02
       H -1.49936e-02 -1.16256e-02  4.76490e-03
       H  3.20410e-03  1.83872e-02  5.38413e-03
       O -1.19615e-02 -6.28339e-03  1.08601e-02
       H -3.21977e-03 -2.19756e-03 -1.89956e-02
       H  1.49174e-02  8.39612e-03  9.36801e-03
       O -1.18692e-02  6.53358e-03 -1.09269e-02
       H -3.30330e-03  1.94946e-03  1.91772e-02
       H  1.48251e-02 -8.51077e-03 -9.47476e-03
       O -1.28140e-02 -6.58647e-03 -9.74389e-03
       H -2.80192e-03 -1.59239e-03  1.92215e-02
       H  1.49882e-02  8.17639e-03 -9.60986e-03
       O -1.20529e-02 -6.90488e-03 -1.05685e-02
       H  1.45918e-02 -1.19583e-02  5.44114e-03
       H -2.63026e-03  1.86581e-02  4.73264e-03
       O -1.87650e-04  1.37847e-02  9.71992e-03
       H -3.04613e-04  3.64622e-03 -1.91152e-02
       H  3.64825e-04 -1.69273e-02  9.81962e-03
       O  1.09730e-02 -7.71447e-03  1.04032e-02
       H -1.45509e-02 -1.17164e-02 -5.20743e-03
       H  3.24320e-03  1.87317e-02 -4.67622e-03
       O  1.21289e-02 -7.13976e-03 -1.00960e-02
       H  3.18114e-03 -1.31916e-03  1.90392e-02
       H -1.49165e-02  8.33260e-03 -9.39660e-03
       O  1.24868e-02  6.75598e-03  1.00338e-02
       H  3.20093e-03  1.46382e-03 -1.91574e-02
       H -1.48631e-02 -8.02461e-03  9.69825e-03
       O -1.28590e-02 -6.74442e-03  9.60402e-03
       H -2.78385e-03 -1.54416e-03 -1.91990e-02
       H  1.49390e-02  8.10637e-03  9.71241e-03
       O -1.18209e-02 -8.07663e-03  1.05248e-02
       H  1.48177e-02 -1.14099e-02 -5.31559e-03
       H -2.90118e-03  1.86259e-02 -4.82765e-03
       O -1.24759e-02  7.24554e-03  9.31415e-03
       H -2.98821e-03 -1.87202e-02 -4.52298e-03
       H  1.50319e-02  1.17902e-02 -4.51357e-03
       O -1.27318e-02  7.10648e-03  1.03532e-02
       H -2.99505e-03  1.44096e-03 -1.91770e-02
       H  1.49670e-02 -8.22445e-03  9.38534e-03
       O -1.08898e-02 -7.50717e-03  1.00054e-02
       H -3.32402e-03 -1.39343e-03 -1.92170e-02
       H  1.46291e-02  8.57743e-03  9.57462e-03
       O  1.09569e-03 -1.30638e-02 -1.01631e-02
       H -4.03268e-04 -3.70057e-03  1.92453e-02
       H -3.03089e-04  1.69850e-02 -9.51085e-03
       O  1.23406e-02  5.67996e-03  1.01506e-02
       H -1.46113e-02  1.22791e-02 -4.52073e-03
       H  2.91276e-03 -1.85398e-02 -5.21441e-03
       O  8.32493e-06  1.46965e-02 -9.06627e-03
       H -1.76279e-02 -6.92554e-03  4.44901e-03
       H  1.78466e-02 -7.00831e-03  4.59208e-03
       O  1.19779e-02 -6.82025e-03  9.84875e-03
       H  2.99284e-03 -1.95157e-03 -1.92501e-02
       H -1.44742e-02  8.72941e-03  9.75064e-03
       O  1.13962e-02  7.92106e-03 -1.06466e-02
       H  3.36464e-03  1.15725e-03  1.92653e-02
       H -1.47995e-02 -8.92414e-03 -9.32836e-03
       O -6.34139e-04  1.38209e-02 -1.07039e-02
       H  3.77658e-04  3.48246e-03  1.91866e-02
       H  2.44857e-05 -1.72332e-02 -9.17101e-03
       O -1.08834e-03  1.37791e-02 -1.05091e-02
       H -1.73563e-02 -6.90475e-03  5.20137e-03
       H  1.76838e-02 -6.69501e-03  4.83620e-03
       O  1.24670e-02  6.32925e-03 -9.54266e-03
       H -1.48775e-02  1.18852e-02  4.42723e-03
       H  2.66860e-03 -1.86762e-02  5.17683e-03
       O  1.23405e-02  6.27748e-03 -1.05285e-02
       H  2.80834e-03  2.02525e-03  1.91079e-02
       H -1.49856e-02 -8.42668e-03 -9.38421e-03
       O  1.26117e-02  6.50583e-03  9.58562e-03
       H -1.43973e-02  1.23548e-02 -4.74125e-03
       H  2.89262e-03 -1.86747e-02 -4.55031e-03
       O  1.66112e-04  1.37228e-02 -9.86479e-03
       H -1.77585e-02 -6.29517e-03  5.20961e-03
       H  1.76751e-02 -6.90056e-03  4.60540e-03
       O  4.93735e-04  1.42080e-02  9.87876e-03
       H -5.39412e-04  3.46476e-03 -1.90284e-02
       H  2.82086e-04 -1.69257e-02  9.71629e-03
       O -1.23855e-02  7.06098e-03 -9.85217e-03
       H -3.05466e-03  1.47283e-03  1.89961e-02
       H  1.47754e-02 -8.15270e-03 -9.65392e-03
       O -1.13159e-02  8.16750e-03  1.03024e-02
       H -3.22482e-03 -1.87348e-02 -4.82052e-03
       H  1.47463e-02  1.15471e-02 -5.35364e-03
       O -1.17062e-02 -7.26536e-03 -9.12286e-03
       H  1.46889e-02 -1.18662e-02  4.99839e-03
       H -2.97779e-03  1.87724e-02  4.42416e-03
       O  1.24433e-02  7.17976e-03 -8.91478e-03
       H -1.48383e-02  1.19643e-02  4.35312e-03
       H  3.03847e-03 -1.87735e-02  4.51362e-03
       O  1.25036e-02  7.54711e-03 -1.02955e-02
       H  3.12497e-03  1.20085e-03  1.90594e-02
       H -1.50598e-02 -8.34921e-03 -9.38501e-03
       O  1.27330e-02 -7.22267e-03 -8.67213e-03
       H  2.76795e-03 -1.52519e-03  1.91263e-02
       H -1.46472e-02  8.38762e-03 -1.01631e-02
       O -4.23174e-04  1.37928e-02 -9.20879e-03
       H -1.76698e-02 -6.71247e-03  5.05295e-03
       H  1.77221e-02 -6.92790e-03  4.38805e-03
       O -1.11665e-02  7.71278e-03 -9.96954e-03
       H -3.38583e-03 -1.87390e-02  4.74909e-03
       H  1.47660e-02  1.16977e-02  4.91053e-03
       O -1.20339e-02 -7.39558e-03  9.38751e-03
       H  1.46171e-02 -1.17620e-02 -5.14589e-03
       H -2.69900e-03  1.88550e-02 -4.67783e-03
       O -2.70439e-05  1.33622e-02 -1.09361e-02
       H -9.77437e-05  3.76526e-03  1.89438e-02
       H -4.75690e-05 -1.71889e-02 -9.26333e-03
       O -1.28298e-02  6.22673e-03  9.35131e-03
       H -2.71110e-03  1.87384e-03 -1.92673e-02
       H  1.48677e-02 -8.00897e-03  9.86944e-03
       O  1.30988e-04 -1.42074e-02 -1.07303e-02
       H -1.75230e-02  6.55365e-03  5.62857e-03
       H  1.74449e-02  7.25883e-03  4.82856e-03
       O -1.15305e-03 -1.39170e-02 -9.25280e-03
       H  1.35765e-04 -3.36479e-03  1.92886e-02
       H  6.23642e-04  1.69053e-02 -9.88325e-03
       O -2.90613e-04  1.35425e-02 -9.57063e-03
       H  3.10802e-04  3.50363e-03  1.93318e-02
       H  5.75886e-05 -1.70294e-02 -9.73626e-03
       O -7.77703e-04  1.41855e-02 -1.01592e-02
       H -1.75250e-02 -6.97038e-03  4.67170e-03
       H  1.77468e-02 -6.37360e-03  4.72311e-03
       O -1.25656e-02 -6.76141e-03  1.00095e-02
       H -2.82494e-03 -2.09940e-03 -1.91348e-02
       H  1.45320e-02  8.66238e-03  9.68544e-03
       O -1.20599e-03  1.32988e-02  1.02748e-02
       H -1.74580e-02 -6.78908e-03 -5.17848e-03
       H  1.79253e-02 -6.53455e-03 -4.73798e-03
       O  1.20830e-02  7.88681e-03  9.88484e-03
       H -1.48741e-02  1.17219e-02 -4.66304e-03
       H  3.34743e-03 -1.86877e-02 -4.62032e-03
       O  1.25409e-02  6.50634e-03  9.29799e-03
       H  2.85222e-03  1.77951e-03 -1.91959e-02
       H -1.48746e-02 -8.05429e-03  9.89494e-03
       O  1.20010e-02  6.91077e-03 -1.03353e-02
       H -1.49256e-02  1.17253e-02  4.86774e-03
       H  3.18456e-03 -1.83188e-02  5.37726e-03
       O  1.21203e-02 -7.59525e-03  1.01131e-02
       H -1.47444e-02 -1.17024e-02 -4.71655e-03
       H  3.34041e-03  1.85009e-02 -4.90653e-03
       O -1.24700e-02  5.96826e-03  1.03827e-02
       H -2.70691e-03 -1.84055e-02 -5.21415e-03
       H  1.46045e-02  1.20073e-02 -4.83328e-03
       O -1.19227e-02  5.70899e-03  9.94652e-03
       H -3.02791e-03  2.19687e-03 -1.92382e-02
       H  1.48587e-02 -8.29905e-03  9.63936e-03
       O  1.17105e-02 -6.66841e-03  9.81373e-03
       H  2.95047e-03 -1.72073e-03 -1.93655e-02
       H -1.50250e-02  8.59230e-03  9.40170e-03
       O  1.27857e-02 -7.19378e-03  9.27752e-03
       H -1.49878e-02 -1.18895e-02 -4.55041e-03
       H  2.63535e-03  1.89462e-02 -4.53698e-03
       O -3.98988e-04  1.34092e-02 -1.10310e-02
       H  4.88237e-05  3.89031e-03  1.91357e-02
       H  7.56490e-05 -1.70181e-02 -9.28156e-03
       O -1.14926e-02  6.74915e-03  9.46892e-03
       H -3.03897e-03  1.82198e-03 -1.93470e-02
       H  1.48968e-02 -8.61751e-03  9.80311e-03
       O  1.10100e-02 -7.27895e-03  1.00363e-02
       H  3.51598e-03 -1.41418e-03 -1.92333e-02
       H -1.47427e-02  8.54639e-03  9.62423e-03
       O  1.25488e-02  7.13396e-03 -8.81536e-03
       H  2.74622e-03  1.68183e-03  1.91496e-02
       H -1.43792e-02 -8.38989e-03 -1.00630e-02
       O -1.27906e-02  5.83082e-03  1.02312e-02
       H -2.70392e-03 -1.85406e-02 -5.37126e-03
       H  1.46885e-02  1.21078e-02 -4.60320e-03
       O -1.17169e-02 -7.59617e-03 -9.78746e-03
       H  1.46495e-02 -1.20332e-02  4.63195e-03
       H -3.49309e-03  1.87647e-02  4.48334e-03
       O -1.19632e-02  7.12763e-03 -1.04726e-02
       H -3.27425e-03 -1.84435e-02  5.33641e-03
       H  1.51469e-02  1.16005e-02  4.70339e-03
       O -1.19179e-02 -7.53345e-03  9.58125e-03
       H  1.47106e-02 -1.19997e-02 -4.59234e-03
       H -3.45291e-03  1.86263e-02 -4.70050e-03
       O  6.22526e-04 -1.40372e-02  9.91532e-03
       H -1.78196e-02  6.22475e-03 -4.79092e-03
       H  1.76462e-02  6.84047e-03 -4.51341e-03
       O  1.18287e-02  7.01192e-03  9.67617e-03
       H  2.93254e-03  2.26680e-03 -1.89967e-02
       H -1.43260e-02 -8.74147e-03  9.80278e-03
       O  1.15014e-02  6.51922e-03 -1.04461e-02
       H -1.42709e-02  1.21803e-02  5.27880e-03
       H  2.88375e-03 -1.87338e-02  4.53884e-03
       O  1.39779e-04  1.47077e-02  9.08354e-03
       H -1.77056e-02 -6.85645e-03 -4.43474e-03
       H  1.77159e-02 -7.01749e-03 -4.57199e-03
       O -1.18184e-02 -7.82420e-03 -9.29091e-03
       H -2.89575e-03 -1.67342e-03  1.92307e-02
       H  1.43103e-02  8.76906e-03 -9.86392e-03
       O  1.16172e-03 -1.30949e-02  1.01134e-02
       H -5.16249e-04 -3.73836e-03 -1.92566e-02
       H -1.64175e-04  1.68804e-02  9.58106e-03
       O  3.03995e-04  1.38402e-02  1.13952e-02
       H -9.38822e-05  3.60890e-03 -1.90646e-02
       H -1.16506e-04 -1.72737e-02  8.99673e-03
       O -1.19463e-02  6.99478e-03 -9.56790e-03
       H -3.20952e-03  1.45161e-03  1.90006e-02
       H  1.47227e-02 -8.12259e-03 -9.86011e-03
       O  1.22186e-02 -6.97049e-03 -1.01559e-02
       H  2.79454e-03 -2.06947e-03  1.91260e-02
       H -1.46423e-02  8.86509e-03 -9.41781e-03
       O  1.23244e-02 -7.16304e-03 -8.83555e-03
       H -1.49054e-02 -1.20345e-02  4.25167e-03
       H  3.15588e-03  1.89302e-02  4.51778e-03
       O  1.17992e-02  7.43588e-03 -9.71247e-03
       H -1.47320e-02  1.19030e-02  4.31484e-03
       H  3.46832e-03 -1.85965e-02  4.71169e-03
       O  1.20390e-02 -7.57563e-03  9.84346e-03
       H -1.46699e-02 -1.18136e-02 -4.42840e-03
       H  3.35864e-03  1.86783e-02 -4.88182e-03
       O -1.23080e-02 -7.37673e-03 -9.96547e-03
       H -3.28779e-03 -1.11756e-03  1.91647e-02
       H  1.48443e-02  8.21768e-03 -9.68036e-03
       O -1.22071e-02  7.09882e-03  9.90850e-03
       H -3.15252e-03  1.40402e-03 -1.90055e-02
       H  1.49306e-02 -8.21564e-03  9.67753e-03
       O  1.11616e-02 -7.50517e-03  1.02369e-02
       H  3.25149e-03 -1.35882e-03 -1.91611e-02
       H -1.47440e-02  8.69142e-03  9.47106e-03
       O  1.18437e-02 -7.65222e-03  9.24574e-03
       H -1.47708e-02 -1.18284e-02 -5.17941e-03
       H  2.75063e-03  1.89025e-02 -4.27143e-03
       O  1.22491e-02  7.73508e-03  1.01204e-02
       H -1.51247e-02  1.16862e-02 -4.65235e-03
       H  3.18032e-03 -1.86588e-02 -4.75982e-03
       O  1.21891e-02  5.83978e-03  1.01738e-02
       H  2.93171e-03  2.38662e-03 -1.91838e-02
       H -1.47012e-02 -8.39359e-03  9.61013e-03
       O -7.49071e-04 -1.40537e-02 -9.74997e-03
       H -1.76730e-02  6.66719e-03  4.54839e-03
       H  1.80695e-02  6.36555e-03  4.47403e-03
       O -1.27408e-02 -6.47227e-03  1.01605e-02
       H  1.43747e-02 -1.21354e-02 -4.69071e-03
       H -2.64324e-03  1.87155e-02 -4.69262e-03
       O  3.70797e-04  1.40877e-02 -1.00355e-02
       H  2.24964e-04  3.48994e-03  1.92146e-02
       H -4.14286e-04 -1.67697e-02 -9.65364e-03
       O  1.18478e-02  7.04635e-03  9.79043e-03
       H  2.96322e-03  2.12102e-03 -1.91592e-02
       H -1.44287e-02 -8.76905e-03  9.79224e-03
       O -1.09754e-02 -7.20572e-03  9.96358e-03
       H -3.53890e-03 -1.39551e-03 -1.91304e-02
       H  1.45970e-02  8.50494e-03  9.65750e-03
       O -1.30289e-02  6.03327e-03 -9.38338e-03
       H -2.66627e-03  1.80824e-03  1.92807e-02
       H  1.48538e-02 -7.99507e-03 -9.86021e-03
       O  3.86334e-04  1.50058e-02 -9.03615e-03
       H -9.98557e-05  2.96884e-03  1.91157e-02
       H -2.11747e-05 -1.67926e-02 -1.00131e-02
       O -1.20018e-02 -6.74760e-03 -1.04386e-02
       H  1.42621e-02 -1.20688e-02  5.31449e-03
       H -2.53985e-03  1.88268e-02  4.64236e-03
       O -1.22375e-02 -7.17832e-03  9.93463e-03
       H -3.26400e-03 -1.17515e-03 -1.91017e-02
       H  1.48043e-02  8.09695e-03  9.69257e-03
       O -1.13402e-02  7.52528e-03 -1.03808e-02
       H -3.32708e-03  1.56768e-03  1.93223e-02
       H  1.47567e-02 -8.70946e-03 -9.50751e-03
       O -1.28444e-02  6.61166e-03  9.92820e-03
       H -2.76183e-03 -1.87978e-02 -4.80569e-03
       H  1.44637e-02  1.21783e-02 -4.74969e-03
       O -1.12359e-02 -7.98719e-03 -1.05984e-02
       H  1.47459e-02 -1.15404e-02  5.42153e-03
       H -3.17776e-03  1.86322e-02  4.81360e-03
       O -1.23601e-02  6.33585e-03 -9.59083e-03
       H -2.68978e-03 -1.87046e-02  5.22251e-03
       H  1.48448e-02  1.18404e-02  4.46844e-03
       O -1.21709e-02  5.92377e-03 -1.02541e-02
       H -2.76281e-03  2.20096e-03  1.90748e-02
       H  1.49552e-02 -8.39718e-03 -9.45421e-03
       O  1.29478e-02 -6.75017e-03 -9.61457e-03
       H  2.75954e-03 -1.56864e-03  1.91300e-02
       H -1.50444e-02  8.19829e-03 -9.57223e-03
       O  1.22784e-02 -6.97870e-03 -9.01687e-03
       H -1.48818e-02 -1.20539e-02  4.42857e-03
       H  2.98323e-03  1.87188e-02  4.33258e-03
       O -4.61853e-04  1.49374e-02  9.05901e-03
       H  1.71105e-06  3.07383e-03 -1.91372e-02
       H  1.13655e-04 -1.67413e-02  9.97271e-03
       O  1.21469e-02 -5.56280e-03  1.03749e-02
       H -1.44488e-02 -1.23156e-02 -4.59910e-03
       H  2.85635e-03  1.84427e-02 -5.15550e-03
       O -1.23633e-02 -6.97427e-03 -9.82327e-03
       H -3.15034e-03 -1.49003e-03  1.90666e-02
       H  1.47699e-02  8.04241e-03 -9.84954e-03
       O  2.29480e-04 -1.36767e-02  1.14847e-02
       H -1.42438e-04 -3.77243e-03 -1.91954e-02
       H -9.96090e-05  1.71775e-02  8.96547e-03
       O -1.20029e-02 -7.03198e-03  9.61169e-03
       H -3.12114e-03 -1.49210e-03 -1.90562e-02
       H  1.48089e-02  8.31384e-03  9.81267e-03
       O -1.13747e-02  6.39785e-03 -1.08907e-02
       H -3.52662e-03  1.88337e-03  1.92284e-02
       H  1.48007e-02 -8.40496e-03 -9.37389e-03
       O  1.14934e-04 -1.44952e-02  8.72429e-03
       H -1.79276e-02  6.86320e-03 -4.31357e-03
       H  1.78001e-02  6.74281e-03 -4.44754e-03
       O  1.28290e-02 -6.64210e-03 -1.01214e-02
       H -1.43031e-02 -1.21510e-02  4.79177e-03
       H  2.78040e-03  1.87523e-02  4.85924e-03
       O -1.09516e-03  1.37618e-02  9.00949e-03
       H  1.80568e-04  3.40529e-03 -1.91888e-02
       H  5.65729e-04 -1.68108e-02  1.00073e-02
       O  1.19748e-02 -7.39630e-03  9.43274e-03
       H -1.46704e-02 -1.17023e-02 -4.99857e-03
       H  2.58512e-03  1.88914e-02 -4.52690e-03
       O  1.08428e-02 -7.40163e-03 -9.95705e-03
       H  3.57965e-03 -1.59123e-03  1.90660e-02
       H -1.46494e-02  8.59297e-03 -9.71086e-03
       O  1.31320e-02  7.20317e-03  8.92003e-03
       H  2.68166e-03  1.54937e-03 -1.91099e-02
       H -1.45367e-02 -8.28069e-03  1.00506e-02
       O  1.21280e-02 -8.33655e-03  9.49178e-03
       H  2.69138e-03 -1.34418e-03 -1.90715e-02
       H -1.45138e-02  9.13730e-03  9.54071e-03
       O  1.23007e-02 -7.11278e-03  8.88035e-03
       H -1.48111e-02 -1.19532e-02 -4.35505e-03
       H  3.11662e-03  1.87701e-02 -4.49072e-03
       O -1.13993e-02  7.45407e-03  9.46031e-03
       H -3.04225e-03 -1.90120e-02 -4.34486e-03
       H  1.46976e-02  1.17917e-02 -5.04347e-03
       O -1.12113e-02  7.59413e-03  1.02504e-02
       H -3.31847e-03  1.27528e-03 -1.90939e-02
       H  1.48066e-02 -8.81020e-03  9.42929e-03
       O -2.64158e-04  1.46111e-02  1.02620e-02
       H -3.35131e-04  3.27533e-03 -1.90426e-02
       H  4.05363e-04 -1.71428e-02  9.35282e-03
       O  1.21791e-02 -7.08851e-03  9.03030e-03
       H -1.46523e-02 -1.20729e-02 -4.53002e-03
       H  3.02850e-03  1.87889e-02 -4.45502e-03
       O -1.20195e-02 -6.11920e-03 -1.04122e-02
       H -3.08952e-03 -2.09427e-03  1.92834e-02
       H  1.48696e-02  8.42576e-03 -9.47197e-03
       O -1.21597e-02  6.73443e-03  9.65434e-03
       H -3.14949e-03  1.39843e-03 -1.91091e-02
       H  1.48345e-02 -8.01908e-03  9.73229e-03
       O -2.25680e-04 -1.39880e-02 -1.02161e-02
       H -1.76357e-02  7.20164e-03  4.73483e-03
       H  1.75949e-02  6.42388e-03  5.24102e-03
       O  1.19983e-03 -1.46825e-02 -9.60068e-03
       H -2.43481e-04 -3.05980e-03  1.91848e-02
       H -6.32622e-04  1.71456e-02 -9.62586e-03
       O  1.23877e-02  7.10203e-03  8.98705e-03
       H -1.48298e-02  1.20052e-02 -4.42691e-03
       H  3.10763e-03 -1.87547e-02 -4.48516e-03
       O  1.22611e-02 -7.23113e-03 -1.05998e-02
       H -1.49918e-02 -1.14508e-02  4.76838e-03
       H  3.02179e-03  1.84594e-02  5.46974e-03
       O  2.30109e-04 -1.45024e-02 -8.99319e-03
       H -1.77100e-02  6.82041e-03  4.46128e-03
       H  1.76521e-02  6.90025e-03  4.56137e-03
       O  1.25144e-04 -1.31507e-02 -9.24350e-03
       H  6.92827e-05 -3.64447e-03  1.92133e-02
       H -5.56461e-05  1.70589e-02 -9.90877e-03
       O  1.15483e-02 -7.77017e-03 -9.04049e-03
       H  2.89536e-03 -1.65935e-03  1.91794e-02
       H -1.43886e-02  8.86954e-03 -1.00350e-02
       O  6.29481e-04  1.41428e-02 -9.71500e-03
       H -1.78415e-02 -6.37311e-03  4.64967e-03
       H  1.76692e-02 -7.00354e-03  4.48664e-03
       O  1.13426e-02 -7.02910e-03  1.10397e-02
       H  3.55359e-03 -1.84993e-03 -1.91347e-02
       H -1.46056e-02  8.58628e-03  9.42100e-03
       O -1.68653e-04 -1.35928e-02 -1.08970e-02
       H  2.23917e-04 -3.76165e-03  1.90745e-02
       H  3.70698e-06  1.70845e-02 -9.30497e-03
       O -1.18177e-02  7.02612e-03  9.74979e-03
       H -3.49198e-03 -1.86100e-02 -5.13512e-03
       H  1.48875e-02  1.18297e-02 -4.38523e-03
       O -1.23829e-02 -5.88842e-03 -9.96388e-03
       H  1.44129e-02 -1.22500e-02  4.75464e-03
       H -2.91715e-03  1.86604e-02  5.11904e-03
       O  1.27501e-02 -6.98934e-03  1.01117e-02
       H  2.62051e-03 -2.11023e-03 -1.90594e-02
       H -1.47061e-02  8.70574e-03  9.60482e-03
       O  5.92102e-04  1.42268e-02  9.74370e-03
       H -1.79311e-02 -6.44550e-03 -4.73583e-03
       H  1.76616e-02 -7.02483e-03 -4.34983e-03
       O  7.91671e-04 -1.42352e-02  9.95331e-03
       H -1.78807e-02  6.42967e-03 -4.67341e-03
       H  1.76607e-02  7.05727e-03 -4.55538e-03
       O  7.63996e-06 -1.30855e-02  9.28814e-03
       H  1.10751e-04 -3.61534e-03 -1.92224e-02
       H  7.58445e-05  1.69115e-02  9.81542e-03
       O -1.17514e-02  6.62966e-03 -1.00644e-02
       H -2.78011e-03 -1.87968e-02  4.34674e-03
       H  1.42718e-02  1.22958e-02  5.35901e-03
       O -1.25522e-04  1.41571e-02  8.99226e-03
       H -1.77771e-02 -6.72556e-03 -4.46227e-03
       H  1.78108e-02 -6.72332e-03 -4.41845e-03
       O  1.22141e-02 -5.78381e-03 -1.03225e-02
       H  2.74823e-03 -2.50650e-03  1.91853e-02
       H -1.47494e-02  8.45368e-03 -9.50529e-03
       O -1.68788e-04 -1.38010e-02  9.77542e-03
       H  4.40848e-04 -3.49025e-03 -1.91928e-02
       H -3.63593e-04  1.69172e-02  9.70517e-03
       O  1.26893e-02 -7.09293e-03  1.03842e-02
       H  2.62936e-03 -2.06516e-03 -1.91425e-02
       H -1.46512e-02  8.74610e-03  9.32429e-03
       O  8.88056e-04  1.42379e-02  1.02603e-02
       H -1.77748e-02 -6.43908e-03 -4.86338e-03
       H  1.74929e-02 -7.08510e-03 -4.67983e-03
       O -1.18550e-02 -6.98280e-03 -9.75473e-03
       H -3.21821e-03 -1.62122e-03  1.90823e-02
       H  1.47708e-02  8.16305e-03 -9.72793e-03
       O  1.78195e-04 -1.37615e-02  9.80525e-03
       H -4.11587e-04 -3.57651e-03 -1.91750e-02
       H  2.70854e-04  1.69407e-02  9.73229e-03
       O -1.17517e-02  7.51370e-03 -9.68356e-03
       H -3.52048e-03 -1.87205e-02  4.44777e-03
       H  1.46331e-02  1.20849e-02  4.52763e-03
       O -1.24686e-02 -6.56266e-03  9.47974e-03
       H  1.44286e-02 -1.22664e-02 -4.50323e-03
       H -3.04224e-03  1.87781e-02 -4.57608e-03
       O  1.21647e-02 -6.12080e-03 -1.03386e-02
       H  3.04385e-03 -2.03756e-03  1.93279e-02
       H -1.48499e-02  8.46062e-03 -9.55877e-03
       O  1.21844e-02  7.08241e-03  1.00430e-02
       H  3.19370e-03  1.39330e-03 -1.90144e-02
       H -1.49487e-02 -8.34536e-03  9.42131e-03
       O  9.49999e-06 -1.38526e-02 -1.02803e-02
       H -1.76142e-02  6.41359e-03  5.48439e-03
       H  1.75134e-02  6.96718e-03  4.67302e-03
       O -1.20130e-02 -6.99574e-03  1.03803e-02
       H  1.44192e-02 -1.20195e-02 -5.61421e-03
       H -2.67854e-03  1.86477e-02 -4.61764e-03
       O -1.19821e-02  6.90455e-03  1.05825e-02
       H -2.66168e-03 -1.86383e-02 -4.72542e-03
       H  1.46021e-02  1.19653e-02 -5.55767e-03
       O -1.23837e-02  5.49733e-03  1.05571e-02
       H -2.87119e-03  2.32354e-03 -1.93633e-02
       H  1.49585e-02 -8.17394e-03  9.42121e-03
       O  1.13369e-03 -1.33037e-02 -1.02551e-02
       H -1.77846e-02  6.43758e-03  4.60451e-03
       H  1.73819e-02  6.75482e-03  5.07111e-03
       O  1.26810e-02  7.01905e-03 -8.60030e-03
       H  2.74859e-03  1.73975e-03  1.90241e-02
       H -1.44663e-02 -8.25182e-03 -1.02088e-02
       O -2.34679e-04  1.45859e-02 -8.70100e-03
       H  2.44063e-05  3.07149e-03  1.90796e-02
       H  8.59777e-05 -1.66918e-02 -1.00887e-02