288
# CELL(abcABC):   25.55133    29.50414    27.81677    90.00000    90.00000    90.00000  Step:           0  Bead:       0 forces{atomic_unit}  cell{atomic_unit}
       O  1.25730e-02 -6.69675e-03  9.88270e-03
       H  2.80030e-03 -2.10870e-03 -1.91376e-02
       H -1.45700e-02  8.59088e-03  9.77211e-03
       O -1.38462e-04  1.37091e-02  1.01385e-02
       H -1.77393e-02 -6.93741e-03 -4.69396e-03
       H  1.78135e-02 -6.54583e-03 -5.16873e-03
       O -1.14238e-02  8.13621e-03  1.02873e-02
       H -3.19115e-03 -1.87097e-02 -4.62509e-03
       H  1.47574e-02  1.16257e-02 -5.45211e-03
       O -1.22453e-02  6.07952e-03  1.02733e-02
       H -2.91780e-03  1.95065e-03 -1.91566e-02
       H  1.49687e-02 -8.38310e-03  9.47208e-03
       O  1.13114e-02  7.73539e-03 -9.75749e-03
       H -1.47595e-02  1.18150e-02  5.01321e-03
       H  3.28040e-03 -1.87320e-02  4.68448e-03
       O  1.16544e-02 -7.49443e-03  9.85262e-03
       H -1.47529e-02 -1.18991e-02 -4.48023e-03
       H  3.40463e-03  1.87858e-02 -4.60682e-03
       O -5.00048e-04  1.34036e-02 -1.10997e-02
       H  1.43039e-04  3.93923e-03  1.92193e-02
       H  1.58598e-04 -1.69889e-02 -9.33285e-03
       O -1.25093e-02  7.20128e-03  8.68323e-03
       H -2.76194e-03  1.77022e-03 -1.90066e-02
       H  1.45462e-02 -8.38075e-03  1.02079e-02
       O -1.26977e-02 -6.77255e-03  9.24032e-03
       H -2.77342e-03 -1.70290e-03 -1.92371e-02
       H  1.48730e-02  8.11110e-03  9.92541e-03
       O  9.62135e-04 -1.31107e-02 -1.00393e-02
       H -4.96480e-04 -3.75752e-03  1.91829e-02
       H -7.28913e-05  1.69311e-02 -9.63391e-03
       O  1.24429e-02  5.91325e-03  1.04083e-02
       H -1.45833e-02  1.21120e-02 -4.74393e-03
       H  2.78783e-03 -1.83969e-02 -5.17198e-03
       O -2.89667e-05  1.44872e-02 -8.67652e-03
       H -1.77493e-02 -6.78621e-03  4.41137e-03
       H  1.78341e-02 -6.77667e-03  4.46107e-03
       O  1.12424e-02 -6.60553e-03  1.06227e-02
       H  3.45419e-03 -1.90641e-03 -1.90096e-02
       H -1.46682e-02  8.42023e-03  9.48564e-03
       O  2.10934e-04 -1.30518e-02 -1.07256e-02
       H -9.95411e-05 -3.93682e-03  1.91441e-02
       H -1.54623e-04  1.69608e-02 -9.36233e-03
       O -6.23525e-04  1.45719e-02 -9.57396e-03
       H  4.49673e-05  3.11336e-03  1.90948e-02
       H  4.38561e-04 -1.71754e-02 -9.53775e-03
       O  7.68942e-04  1.44216e-02 -1.00229e-02
       H -1.76764e-02 -6.38783e-03  4.79212e-03
       H  1.74688e-02 -6.97460e-03  4.75295e-03
       O -1.26919e-02  6.68281e-03 -9.96014e-03
       H -2.91633e-03 -1.86805e-02  4.49760e-03
       H  1.47917e-02  1.21321e-02  4.70410e-03
       O -1.29004e-02  6.08092e-03 -9.24676e-03
       H -2.73909e-03  1.95003e-03  1.92137e-02
       H  1.48351e-02 -7.95004e-03 -9.96944e-03
       O -1.26538e-02 -7.12531e-03 -1.00553e-02
       H -3.07350e-03 -1.34612e-03  1.89886e-02
       H  1.49786e-02  8.19058e-03 -9.63372e-03
       O -1.20055e-02 -7.65683e-03 -9.33890e-03
       H  1.48044e-02 -1.16829e-02  5.22293e-03
       H -2.78663e-03  1.88008e-02  4.52182e-03
       O  1.22769e-02  6.40327e-03 -9.88476e-03
       H -1.43178e-02  1.22494e-02  4.70997e-03
       H  3.02253e-03 -1.86172e-02  4.63378e-03
       O  1.12489e-02 -7.93674e-03  9.88553e-03
       H -1.45318e-02 -1.16926e-02 -5.20816e-03
       H  3.31014e-03  1.87648e-02 -4.66546e-03
       O  1.37663e-03 -1.37054e-02  1.04401e-02
       H -1.78115e-02  6.44575e-03 -4.70411e-03
       H  1.73477e-02  6.93268e-03 -5.24124e-03
       O  1.29117e-02  7.27972e-03  8.99326e-03
       H  2.62097e-03  1.83166e-03 -1.91021e-02
       H -1.43964e-02 -8.42245e-03  1.00553e-02
       O -5.90102e-04 -1.44374e-02 -1.00477e-02
       H -1.76232e-02  6.97788e-03  4.84017e-03
       H  1.75990e-02  6.36945e-03  4.77716e-03
       O -1.22450e-02 -5.93185e-03  9.91390e-03
       H  1.43259e-02 -1.21663e-02 -4.77195e-03
       H -2.93228e-03  1.86455e-02 -5.08928e-03
       O -1.22801e-02  5.62645e-03  1.04277e-02
       H -2.83977e-03 -1.85490e-02 -5.16517e-03
       H  1.45222e-02  1.22990e-02 -4.65376e-03
       O -2.80347e-05 -1.42866e-02  9.85097e-03
       H  4.86990e-04 -3.39492e-03 -1.91186e-02
       H -3.10338e-04  1.68524e-02  9.67442e-03
       O  6.97245e-04 -1.38627e-02 -9.85636e-03
       H -1.79289e-02  6.37845e-03  4.56440e-03
       H  1.76407e-02  6.86366e-03  4.49120e-03
       O  1.30518e-02  7.17597e-03 -8.86112e-03
       H  2.69244e-03  1.59510e-03  1.90763e-02
       H -1.44843e-02 -8.29630e-03 -1.01347e-02
       O  1.25647e-02 -5.80169e-03 -1.04389e-02
       H  2.73371e-03 -2.35989e-03  1.90634e-02
       H -1.50416e-02  8.38713e-03 -9.39391e-03
       O  1.16838e-02 -7.15991e-03 -9.33735e-03
       H -1.47789e-02 -1.18707e-02  4.98167e-03
       H  2.82634e-03  1.88339e-02  4.39053e-03
       O  6.57333e-05  1.33904e-02  1.09701e-02
       H -2.31034e-04  3.86937e-03 -1.90489e-02
       H  1.24157e-04 -1.69816e-02  9.27110e-03
       O  1.13272e-02  6.71415e-03 -1.07171e-02
       H  3.34677e-03  2.02825e-03  1.90846e-02
       H -1.47007e-02 -8.66539e-03 -9.46060e-03
       O -1.30447e-02 -6.69760e-03 -9.62251e-03
       H -2.57155e-03 -1.49876e-03  1.91093e-02
       H  1.51244e-02  8.14334e-03 -9.49929e-03
       O -1.25026e-02 -7.15069e-03 -8.74010e-03
       H  1.46872e-02 -1.20209e-02  4.49636e-03
       H -3.00789e-03  1.87475e-02  4.45678e-03
       O -1.03149e-03  1.43339e-02  9.24078e-03
       H  3.03441e-04  3.23928e-03 -1.92858e-02
       H  5.08868e-04 -1.69257e-02  1.00214e-02
       O  8.17889e-04  1.46242e-02  9.87452e-03
       H -1.78354e-02 -6.53110e-03 -4.59639e-03
       H  1.76126e-02 -7.16749e-03 -4.67389e-03
       O  1.15368e-04 -1.37166e-02  1.03896e-02
       H -1.76458e-02  6.46085e-03 -5.37582e-03
       H  1.75076e-02  6.93730e-03 -4.60252e-03
       O  2.60615e-04 -1.31327e-02  9.36281e-03
       H -7.13219e-05 -3.73702e-03 -1.93118e-02
       H -5.64668e-05  1.71558e-02  9.89487e-03
       O -1.12575e-02  7.77476e-03 -9.77545e-03
       H -3.42251e-03 -1.87394e-02  4.56325e-03
       H  1.47261e-02  1.19010e-02  5.08741e-03
       O -1.25689e-02 -8.06956e-03  1.01380e-02
       H  1.50926e-02 -1.14282e-02 -4.66356e-03
       H -2.99153e-03  1.87511e-02 -4.91992e-03
       O  1.13927e-02 -7.09344e-03 -1.12033e-02
       H  3.47301e-03 -1.93184e-03  1.92977e-02
       H -1.47025e-02  8.63836e-03 -9.30512e-03
       O  1.14914e-02  6.36482e-03  9.26391e-03
       H  3.12248e-03  1.84311e-03 -1.92359e-02
       H -1.47832e-02 -8.37014e-03  9.91430e-03
       O -1.10869e-02 -7.86925e-03  1.02053e-02
       H -3.44448e-03 -1.40621e-03 -1.91418e-02
       H  1.45645e-02  8.71623e-03  9.61920e-03
       O -1.20890e-02  6.76293e-03 -9.60820e-03
       H -2.81443e-03  2.02189e-03  1.90631e-02
       H  1.44934e-02 -8.64753e-03 -9.75161e-03
       O  1.21197e-02  6.73222e-03  1.01661e-02
       H -1.43034e-02  1.20299e-02 -5.19078e-03
       H  2.68460e-03 -1.87427e-02 -4.65176e-03
       O  1.19902e-02 -7.61834e-03 -1.00387e-02
       H -1.49801e-02 -1.18002e-02  4.70866e-03
       H  3.27341e-03  1.85145e-02  4.69014e-03
       O -1.30249e-02 -5.82599e-03  9.24516e-03
       H -2.71860e-03 -1.95483e-03 -1.92000e-02
       H  1.49069e-02  7.95330e-03  9.92282e-03
       O -1.11936e-02  7.49253e-03 -1.04089e-02
       H -3.35733e-03  1.32720e-03  1.90855e-02
       H  1.47856e-02 -8.71976e-03 -9.34306e-03
       O  1.12913e-02  7.86512e-03  1.04942e-02
       H -1.48017e-02  1.15794e-02 -5.24750e-03
       H  3.27695e-03 -1.84768e-02 -4.76001e-03
       O  1.27933e-02 -7.15325e-03 -8.91984e-03
       H -1.47433e-02 -1.18657e-02  4.45730e-03
       H  2.68319e-03  1.88272e-02  4.57357e-03
       O -1.29010e-02  6.06016e-03 -1.07506e-02
       H -2.52026e-03 -1.85306e-02  5.48069e-03
       H  1.46544e-02  1.18768e-02  4.96534e-03
       O  8.31227e-05  1.41659e-02  8.81220e-03
       H -1.78458e-02 -6.52966e-03 -4.41784e-03
       H  1.77756e-02 -6.84540e-03 -4.35549e-03
       O  1.20984e-02 -7.83755e-03 -9.07837e-03
       H  2.66802e-03 -1.70193e-03  1.91040e-02
       H -1.44416e-02  8.94531e-03 -9.91462e-03
       O -6.12521e-05 -1.41412e-02  1.00296e-02
       H  4.25436e-04 -3.35191e-03 -1.90548e-02
       H -2.78041e-04  1.70199e-02  9.59688e-03
       O  1.33424e-03  1.47067e-02  9.58102e-03
       H -3.45725e-04  3.12221e-03 -1.91676e-02
       H -6.78811e-04 -1.71891e-02  9.61808e-03
       O -1.09094e-04  1.44140e-02  1.05519e-02
       H -1.75413e-02 -7.37835e-03 -4.74741e-03
       H  1.76483e-02 -6.71796e-03 -5.62074e-03
       O  4.63056e-04 -1.39560e-02  9.53264e-03
       H -1.77333e-02  7.15352e-03 -4.59793e-03
       H  1.74909e-02  6.80176e-03 -5.00842e-03
       O -1.16618e-02  8.29260e-03  9.25357e-03
       H -2.88630e-03  1.36411e-03 -1.91542e-02
       H  1.43676e-02 -8.88842e-03  9.87232e-03
       O  1.23605e-02  6.44883e-03 -8.91336e-03
       H -1.48977e-02  1.20786e-02  4.36270e-03
       H  2.95015e-03 -1.87071e-02  5.07374e-03
       O  1.18918e-02 -7.73161e-03  1.01888e-02
       H -1.49273e-02 -1.16653e-02 -4.69919e-03
       H  3.41686e-03  1.85344e-02 -4.71813e-03
       O -1.28551e-02  7.28274e-03  8.80658e-03
       H -2.75005e-03 -1.89547e-02 -4.53271e-03
       H  1.48792e-02  1.19180e-02 -4.24344e-03
       O -1.28903e-02  7.26811e-03  9.06607e-03
       H -2.58164e-03  1.63001e-03 -1.91304e-02
       H  1.47373e-02 -8.40455e-03  9.82395e-03
       O -1.14719e-02  7.14730e-03 -9.30764e-03
       H -2.87124e-03 -1.87638e-02  4.34136e-03
       H  1.46743e-02  1.18356e-02  4.92239e-03
       O  1.04838e-03 -1.43881e-02 -9.25095e-03
       H -2.80801e-04 -3.26062e-03  1.93022e-02
       H -5.42663e-04  1.70545e-02 -1.00229e-02
       O  1.28450e-02 -6.27186e-03 -9.34001e-03
       H  2.75603e-03 -1.68564e-03  1.91662e-02
       H -1.51083e-02  8.09956e-03 -9.72065e-03
       O  1.18317e-02 -7.01009e-03 -1.05595e-02
       H -1.49910e-02 -1.16569e-02  4.67683e-03
       H  3.34432e-03  1.84303e-02  5.39340e-03
       O -1.14547e-02 -7.20133e-03  1.09776e-02
       H -3.47944e-03 -1.90992e-03 -1.91572e-02
       H  1.47406e-02  8.74910e-03  9.45685e-03
       O -1.20753e-02  6.08951e-03 -1.02023e-02
       H -3.05387e-03  2.14202e-03  1.91303e-02
       H  1.47716e-02 -8.35234e-03 -9.61340e-03
       O -1.28731e-02 -7.42218e-03 -9.05682e-03
       H -2.69314e-03 -1.51359e-03  1.91251e-02
       H  1.47709e-02  8.55310e-03 -9.98496e-03
       O  6.18696e-04  1.36227e-02 -9.34057e-03
       H -1.78717e-02 -6.93439e-03  4.31903e-03
       H  1.76475e-02 -6.81200e-03  4.97364e-03
       O -1.38312e-03  1.35494e-02  1.04528e-02
       H  6.57934e-04  3.70551e-03 -1.92890e-02
       H  2.43036e-04 -1.71383e-02  9.49482e-03
       O  1.15857e-02  8.26756e-03 -9.33057e-03
       H  2.93398e-03  1.52107e-03  1.92044e-02
       H -1.42884e-02 -8.94688e-03 -9.83701e-03
       O  8.73195e-04  1.34373e-02 -1.03866e-02
       H -4.30570e-04  3.65614e-03  1.92211e-02
       H -1.53681e-04 -1.72725e-02 -9.43953e-03
       O -5.94683e-04  1.40799e-02 -9.54533e-03
       H -1.75805e-02 -7.05173e-03  5.21543e-03
       H  1.76690e-02 -7.04153e-03  4.45574e-03
       O  1.17586e-02  8.29608e-03 -1.03725e-02
       H -1.48231e-02  1.13614e-02  5.26063e-03
       H  2.93962e-03 -1.87865e-02  4.83338e-03
       O  1.27319e-02  6.30763e-03 -9.24144e-03
       H  2.71396e-03  1.74107e-03  1.91848e-02
       H -1.50796e-02 -8.02946e-03 -9.85137e-03
       O  5.41799e-05  1.41631e-02 -9.98338e-03
       H  2.87142e-04  3.43721e-03  1.90116e-02
       H -3.09271e-04 -1.70779e-02 -9.65955e-03
       O -1.16010e-02 -7.40111e-03 -1.01237e-02
       H  1.47351e-02 -1.18899e-02  4.61490e-03
       H -3.42858e-03  1.85807e-02  4.64413e-03
       O -3.13534e-04 -1.39976e-02 -1.01373e-02
       H -1.75653e-02  7.22852e-03  4.70027e-03
       H  1.76851e-02  6.50057e-03  5.20747e-03
       O -1.26435e-02 -6.70376e-03  9.98213e-03
       H  1.47117e-02 -1.21859e-02 -4.72621e-03
       H -2.91012e-03  1.87290e-02 -4.56959e-03
       O  1.26860e-02  6.47627e-03  9.25231e-03
       H -1.48557e-02  1.18051e-02 -4.47177e-03
       H  2.64126e-03 -1.87259e-02 -5.18394e-03
       O  1.27143e-02  6.25242e-03  9.37741e-03
       H  2.80743e-03  1.70507e-03 -1.91498e-02
       H -1.51154e-02 -8.11483e-03  9.79547e-03
       O  1.27546e-02 -7.91247e-03  8.81812e-03
       H  2.62263e-03 -1.46742e-03 -1.90001e-02
       H -1.44134e-02  8.57096e-03  1.01461e-02
       O -2.52975e-04 -1.38052e-02 -1.12221e-02
       H  1.51081e-04 -3.72012e-03  1.90055e-02
       H -2.12126e-05  1.71892e-02 -9.18803e-03
       O -1.15963e-02  6.64379e-03  1.04350e-02
       H -3.30115e-03 -1.84153e-02 -5.25138e-03
       H  1.48812e-02  1.18365e-02 -4.63223e-03
       O -1.26601e-02 -6.64078e-03 -9.19785e-03
       H  1.48597e-02 -1.17193e-02  4.41407e-03
       H -2.68701e-03  1.87124e-02  5.16366e-03
       O -6.54016e-04 -1.37065e-02 -9.30737e-03
       H -1.75341e-02  6.68769e-03  5.04619e-03
       H  1.77828e-02  6.95735e-03  4.37377e-03
       O -1.20446e-02 -5.62637e-03  1.03703e-02
       H  1.44069e-02 -1.22134e-02 -4.63728e-03
       H -2.84896e-03  1.84694e-02 -5.10848e-03
       O -1.19935e-02 -7.72750e-03 -9.18306e-03
       H -2.75652e-03 -1.75198e-03  1.90640e-02
       H  1.44648e-02  8.84529e-03 -9.86686e-03
       O  7.27903e-04 -1.37967e-02  1.05647e-02
       H -4.02872e-04 -3.54973e-03 -1.92050e-02
       H -1.02021e-04  1.72039e-02  9.38767e-03
       O  1.31176e-02 -6.21306e-03  9.67819e-03
       H  2.48987e-03 -1.76846e-03 -1.92488e-02
       H -1.49829e-02  8.03558e-03  9.62154e-03
       O  1.17898e-02 -7.24470e-03  9.21826e-03
       H -1.46862e-02 -1.19616e-02 -5.24193e-03
       H  2.94129e-03  1.87388e-02 -4.59549e-03
       O  6.26313e-04 -1.36397e-02  9.32996e-03
       H -1.77958e-02  6.90103e-03 -4.30407e-03
       H  1.75746e-02  6.84334e-03 -4.95029e-03
       O  1.20008e-02  7.91421e-03  9.22913e-03
       H  2.75274e-03  1.62443e-03 -1.92052e-02
       H -1.44149e-02 -9.00832e-03  9.86322e-03
288
# CELL(abcABC):   25.55133    29.50414    27.81677    90.00000    90.00000    90.00000  Step:           1  Bead:       0 forces{atomic_unit}  cell{atomic_unit}
       O -4.02620e-03  2.78060e-03 -3.35299e-03
       H  3.87353e-03 -2.72513e-03 -6.57595e-04
       H  1.09657e-03 -3.71881e-04  4.70574e-03
       O  1.11961e-05 -5.21584e-03 -3.23341e-03
       H -3.34327e-03  2.57933e-03  2.08340e-03
       H  3.28850e-03  3.08324e-03  1.61314e-03
       O  4.69580e-03 -2.25416e-03 -3.21155e-03
       H -4.31449e-03 -7.87512e-04  2.38871e-03
       H -3.06997e-04  4.17826e-03  1.20081e-03
       O  4.09873e-03 -3.39305e-03 -3.38496e-03
       H -3.98781e-03  2.58300e-03 -4.14281e-04
       H -4.04316e-04  4.25225e-04  4.53480e-03
       O -4.72715e-03 -2.28793e-03  3.40908e-03
       H  2.60121e-04  4.30211e-03 -1.52670e-03
       H  4.32252e-03 -1.05662e-03 -2.15474e-03
       O -4.28276e-03  2.31681e-03 -3.53619e-03
       H  4.00685e-04 -4.26596e-03  2.14864e-03
       H  4.39689e-03  1.16695e-03  2.22029e-03
       O -3.31140e-04 -4.96448e-03  3.02255e-03
       H  1.04761e-04  5.18238e-03  1.19434e-07
       H  9.32324e-05  3.42573e-04 -4.53665e-03
       O  4.06406e-03 -2.38918e-03 -3.69497e-03
       H -3.78075e-03  2.31678e-03 -1.28211e-03
       H -1.34245e-03  7.68727e-04  4.97694e-03
       O  4.04702e-03  3.03527e-03 -3.65823e-03
       H -3.83642e-03 -2.31154e-03 -1.05332e-03
       H -9.47576e-04 -1.06141e-03  4.72706e-03
       O  9.22802e-04  5.16216e-03  3.51739e-03
       H -4.79835e-04 -4.84808e-03  5.29622e-04
       H -3.24569e-05 -3.94438e-04 -4.68395e-03
       O -4.41735e-03 -2.90140e-03 -3.05796e-03
       H  1.37304e-03  4.17393e-03  2.21903e-03
       H  3.86014e-03 -1.69973e-03  1.42182e-03
       O  6.12914e-05 -4.27202e-03  4.52954e-03
       H -3.38759e-03  2.68220e-03 -2.20607e-03
       H  3.38535e-03  2.73108e-03 -2.19889e-03
       O -4.37659e-03  2.51974e-03 -3.13734e-03
       H  4.43648e-03 -2.47920e-03 -1.37031e-04
       H  2.03425e-04 -1.47003e-04  4.63568e-03
       O  1.03661e-04  5.13290e-03  3.19006e-03
       H -7.57153e-05 -5.12644e-03  1.39890e-04
       H -1.08060e-04 -2.32385e-04 -4.54617e-03
       O -7.30711e-04 -4.99413e-03  3.65679e-03
       H  4.42339e-05  4.43800e-03  7.86934e-04
       H  4.27556e-04  1.18609e-03 -4.43437e-03
       O  1.73045e-04 -4.57577e-03  3.41439e-03
       H -2.95521e-03  3.43995e-03 -2.12215e-03
       H  3.32796e-03  2.48796e-03 -1.95349e-03
       O  3.98051e-03 -2.45793e-03  3.55885e-03
       H -3.98947e-03 -1.58527e-03 -2.20354e-03
       H -1.11762e-03  4.24496e-03 -2.17567e-03
       O  3.67552e-03 -3.45774e-03  3.70548e-03
       H -3.82612e-03  2.43753e-03  1.03824e-03
       H -8.50893e-04  1.05670e-03 -4.81531e-03
       O  4.17109e-03  2.51860e-03  3.31160e-03
       H -4.26736e-03 -1.98405e-03  4.57243e-04
       H -7.81619e-04 -9.51530e-04 -4.61330e-03
       O  4.27889e-03  2.33832e-03  4.12179e-03
       H -4.57644e-04 -4.12502e-03 -1.42534e-03
       H -3.87586e-03  1.22448e-03 -2.29944e-03
       O -3.97564e-03 -2.58272e-03  3.44946e-03
       H  1.27944e-03  4.42595e-03 -2.06169e-03
       H  3.99218e-03 -1.69108e-03 -2.02627e-03
       O -4.59540e-03  2.28762e-03 -3.35358e-03
       H  3.56099e-04 -4.28019e-03  1.30219e-03
       H  4.36213e-03  9.71253e-04  2.25733e-03
       O  3.86120e-04  5.29900e-03 -2.97840e-03
       H -2.90283e-03 -3.43719e-03  2.28841e-03
       H  3.47989e-03 -2.33665e-03  1.35559e-03
       O -3.83337e-03 -2.43624e-03 -3.66877e-03
       H  3.71085e-03  2.38981e-03 -1.15850e-03
       H  1.53881e-03  7.75844e-04  4.86691e-03
       O -2.98505e-04  4.59520e-03  3.45858e-03
       H -3.30598e-03 -2.56635e-03 -1.94963e-03
       H  2.98516e-03 -3.39116e-03 -2.10455e-03
       O  4.21847e-03  2.98566e-03 -3.24979e-03
       H -1.33136e-03 -4.30551e-03  2.05214e-03
       H -3.93076e-03  1.88487e-03  1.47800e-03
       O  4.46175e-03 -2.99920e-03 -2.92384e-03
       H -3.84736e-03 -1.89008e-03  1.39993e-03
       H -1.40091e-03  4.30620e-03  2.28737e-03
       O -1.12008e-04  4.81290e-03 -3.35450e-03
       H  4.91001e-04 -4.65505e-03 -6.61749e-04
       H -3.28223e-04 -1.15533e-03  4.62964e-03
       O  1.76075e-04  4.80592e-03  3.42027e-03
       H -3.24151e-03 -3.28494e-03 -2.22943e-03
       H  3.51854e-03 -2.47165e-03 -2.12045e-03
       O -3.85756e-03 -2.51266e-03  3.65375e-03
       H  3.79472e-03  2.19147e-03  1.21889e-03
       H  1.54930e-03  9.42737e-04 -4.90121e-03
       O -3.93073e-03  3.58498e-03  3.25669e-03
       H  3.86702e-03 -2.94070e-03  3.26871e-04
       H  3.96915e-04 -4.47061e-04 -4.47648e-03
       O -4.50489e-03  2.29910e-03  4.01491e-03
       H  4.80046e-04 -4.18672e-03 -1.63845e-03
       H  3.83403e-03  1.55957e-03 -2.31528e-03
       O -3.04428e-06 -5.04744e-03 -3.09395e-03
       H -1.77774e-04  5.13405e-03  3.84094e-05
       H  9.18119e-05  3.55830e-04  4.48816e-03
       O -4.46966e-03 -2.45161e-03  3.14565e-03
       H  4.36603e-03  2.60953e-03  1.01654e-04
       H  2.84902e-04  1.81549e-05 -4.59971e-03
       O  3.89805e-03  3.12246e-03  3.59099e-03
       H -3.75732e-03 -2.15964e-03  8.01458e-04
       H -7.96192e-04 -1.04328e-03 -4.41926e-03
       O  3.69962e-03  2.15193e-03  4.42252e-03
       H -6.84269e-04 -4.29959e-03 -2.15238e-03
       H -4.03507e-03  1.60068e-03 -2.16966e-03
       O -1.03373e-03 -4.98946e-03 -3.70178e-03
       H  2.40669e-04  4.43902e-03 -1.06913e-03
       H  4.82226e-04  1.31288e-03  4.83215e-03
       O  1.97313e-04 -4.54248e-03 -3.67686e-03
       H -3.00355e-03  3.37096e-03  2.34754e-03
       H  3.37468e-03  2.37188e-03  2.04281e-03
       O -4.08573e-05  5.31237e-03 -3.12043e-03
       H -3.14562e-03 -3.17565e-03  1.43841e-03
       H  3.18221e-03 -2.58198e-03  2.16037e-03
       O  2.21653e-04  5.43591e-03 -3.77832e-03
       H -3.81451e-05 -4.76423e-03 -1.01379e-03
       H -3.97119e-05 -4.83272e-04  4.76981e-03
       O  4.61552e-03 -2.19716e-03  3.38921e-03
       H -4.42694e-03 -1.08797e-03 -2.28414e-03
       H -2.60817e-04  4.39160e-03 -1.45071e-03
       O  4.10958e-03  2.15893e-03 -3.62419e-03
       H -4.98287e-04 -3.86646e-03  2.15995e-03
       H -4.22138e-03  8.38081e-04  2.12350e-03
       O -4.52334e-03  2.25777e-03  3.22495e-03
       H  4.54027e-03 -2.60197e-03 -1.07814e-04
       H  3.07003e-04 -7.14653e-05 -4.51514e-03
       O -4.53523e-03 -2.85133e-03 -3.69086e-03
       H  4.03631e-03  2.34692e-03 -1.08102e-03
       H  4.44472e-04  3.79644e-04  4.79414e-03
       O  5.06143e-03  1.52677e-03 -3.35798e-03
       H -4.45595e-03 -2.06097e-03 -4.60557e-04
       H -6.12522e-04 -1.31022e-04  4.65441e-03
       O  4.27107e-03 -2.61168e-03  3.40172e-03
       H -3.84994e-03  2.63687e-03  7.73859e-04
       H -1.04163e-03  2.23296e-04 -4.68159e-03
       O -4.40483e-03 -2.68920e-03 -3.23559e-03
       H  1.21782e-03  4.35035e-03  1.57561e-03
       H  3.78480e-03 -1.53263e-03  2.12171e-03
       O -4.22007e-03  2.11750e-03  3.47669e-03
       H  4.02899e-04 -4.15971e-03 -2.04057e-03
       H  4.36590e-03  9.94129e-04 -2.19178e-03
       O  3.63179e-03  3.61776e-03 -3.60658e-03
       H -3.77335e-03 -2.45226e-03 -1.07431e-03
       H -8.32182e-04 -1.05937e-03  4.74669e-03
       O  4.95176e-03 -1.86644e-03  3.43460e-03
       H -4.40259e-03  1.94886e-03  2.81852e-04
       H -3.91385e-04  9.80052e-05 -4.45783e-03
       O -4.78743e-03 -2.23587e-03 -2.97434e-03
       H  2.80709e-04  4.11600e-03  1.38361e-03
       H  4.38106e-03 -7.90516e-04  2.19118e-03
       O -3.70779e-03  2.16627e-03  4.45319e-03
       H  7.90091e-04 -4.15510e-03 -2.26964e-03
       H  3.78431e-03  1.61056e-03 -2.12062e-03
       O  4.35782e-03 -2.96146e-03  2.96796e-03
       H -3.70341e-03 -1.59883e-03 -1.31186e-03
       H -1.52029e-03  3.93221e-03 -2.16203e-03
       O  2.15650e-05 -4.34388e-03 -4.36639e-03
       H -3.48841e-03  2.84563e-03  2.20152e-03
       H  3.44954e-03  2.56492e-03  2.21205e-03
       O -4.70912e-03  1.83266e-03  3.60332e-03
       H  3.71642e-03 -2.31154e-03  1.12757e-03
       H  1.39636e-03 -2.24067e-04 -4.73335e-03
       O -1.07475e-05  4.84368e-03 -3.42186e-03
       H  4.50378e-04 -4.62612e-03 -4.93304e-04
       H -3.09956e-04 -9.45082e-04  4.62467e-03
       O  1.19052e-03 -4.92779e-03 -3.56018e-03
       H -2.61617e-04  4.44341e-03 -8.52750e-04
       H -6.19746e-04  1.25889e-03  4.48814e-03
       O  2.26854e-05 -5.20918e-03 -3.25382e-03
       H -2.97659e-03  2.42574e-03  2.18823e-03
       H  2.95383e-03  3.15479e-03  1.38441e-03
       O  1.69118e-04  5.01056e-03 -3.97369e-03
       H -3.12003e-03 -2.50796e-03  2.23201e-03
       H  3.29516e-03 -2.58889e-03  1.64615e-03
       O  4.96091e-03 -1.42081e-03 -3.59378e-03
       H -3.89193e-03  2.04337e-03 -1.06782e-03
       H -1.33199e-03  2.42209e-04  4.71829e-03
       O -4.10632e-03 -2.57512e-03  4.26215e-03
       H  6.75293e-04  4.21946e-03 -2.37318e-03
       H  3.94693e-03 -1.80654e-03 -1.45384e-03
       O -4.20197e-03  2.24109e-03 -3.40574e-03
       H  3.62540e-04 -4.09599e-03  2.00953e-03
       H  4.48918e-03  8.77495e-04  2.21721e-03
       O  3.62459e-03 -2.13376e-03 -4.56598e-03
       H -3.83585e-03 -1.64507e-03  2.17690e-03
       H -6.82326e-04  4.20120e-03  2.47302e-03
       O  4.00084e-03 -2.36638e-03 -3.70810e-03
       H -3.71475e-03  2.25703e-03 -1.11097e-03
       H -1.28052e-03  8.39671e-04  4.65151e-03
       O  4.49962e-03 -2.37341e-03  3.92233e-03
       H -3.82107e-03 -1.53620e-03 -2.35794e-03
       H -3.98641e-04  4.21759e-03 -1.62861e-03
       O  1.03731e-03  5.02504e-03  3.67784e-03
       H -2.11494e-04 -4.47398e-03  1.08437e-03
       H -5.00554e-04 -1.27938e-03 -4.83073e-03
       O -3.83195e-03  3.32701e-03  3.66689e-03
       H  3.84805e-03 -2.27210e-03  9.76469e-04
       H  6.89929e-04 -9.84797e-04 -4.58391e-03
       O -4.61372e-03  2.62189e-03  3.00229e-03
       H  5.16501e-04 -3.96307e-03 -2.12586e-03
       H  4.45193e-03  1.05566e-03 -1.44088e-03
       O  4.57932e-03  2.20450e-03 -3.02692e-03
       H -4.52584e-03 -2.56011e-03 -1.80041e-05
       H -4.15566e-04 -6.38287e-05  4.57975e-03
       O  4.02365e-03 -3.32379e-03  3.36675e-03
       H -4.07504e-03  2.75990e-03  4.52192e-04
       H -4.50847e-04  3.58954e-04 -4.65434e-03
       O  4.12539e-03  2.36290e-03  3.69784e-03
       H -3.79356e-03 -2.16770e-03  1.09631e-03
       H -1.37930e-03 -7.80885e-04 -4.76489e-03
       O  1.04726e-04 -5.08855e-03  3.92093e-03
       H -3.23747e-03  2.62503e-03 -2.44308e-03
       H  3.55074e-03  2.45008e-03 -1.56912e-03
       O -1.22506e-03 -5.21600e-03 -3.34783e-03
       H  6.01160e-04  4.90589e-03 -3.91692e-04
       H  1.30913e-04  5.15856e-04  4.54501e-03
       O -4.93267e-03 -1.37565e-03  3.66916e-03
       H  3.91804e-03  2.21110e-03  1.00484e-03
       H  1.30322e-03  1.70802e-04 -4.70732e-03
       O  8.44727e-04 -5.30690e-03  3.41246e-03
       H -4.33473e-04  4.88215e-03  3.73343e-04
       H -1.00195e-04  3.82387e-04 -4.50609e-03
       O -1.66792e-04 -5.01342e-03  4.00113e-03
       H -3.34250e-03  2.40765e-03 -1.47622e-03
       H  3.02060e-03  2.66059e-03 -2.39771e-03
       O -4.58589e-03 -2.30264e-03  3.23031e-03
       H  3.32909e-04  3.97873e-03 -1.41011e-03
       H  4.13750e-03 -6.99577e-04 -2.25659e-03
       O -3.96242e-03 -3.29607e-03  3.72656e-03
       H  3.80483e-03  2.31131e-03  1.02273e-03
       H  6.97742e-04  1.03722e-03 -4.71491e-03
       O  9.55795e-05 -4.91181e-03  3.32235e-03
       H  3.41192e-04  4.72771e-03  5.38798e-04
       H -3.49222e-04  9.81600e-04 -4.65057e-03
       O  4.32592e-03  2.26708e-03  3.30921e-03
       H -4.61529e-04 -4.28419e-03 -2.06091e-03
       H -4.43969e-03  1.10544e-03 -2.17887e-03
       O -1.34254e-05  5.15228e-03  3.31392e-03
       H -3.22117e-03 -2.33773e-03 -2.07123e-03
       H  3.12288e-03 -3.21928e-03 -1.62841e-03
       O  3.97662e-03  2.48521e-03 -3.53675e-03
       H -1.14621e-03 -4.30829e-03  2.15471e-03
       H -3.99379e-03  1.59186e-03  2.15110e-03
       O -4.09857e-03 -2.60970e-03 -4.09198e-03
       H  8.74705e-04  3.99817e-03  2.35173e-03
       H  3.73037e-03 -1.75643e-03  1.44071e-03
       O -3.93908e-03 -3.32171e-03 -3.68922e-03
       H  3.87952e-03  2.27993e-03 -9.50840e-04
       H  6.59519e-04  9.55410e-04  4.66989e-03
       O -4.16490e-03  2.03692e-03 -3.55870e-03
       H  3.70580e-03 -2.11548e-03 -1.22854e-03
       H  1.68781e-03 -7.84354e-04  4.88324e-03
       O -8.45597e-05  5.07747e-03  2.99082e-03
       H  1.01582e-04 -5.09485e-03 -2.03812e-04
       H -2.08639e-05 -4.62465e-04 -4.38798e-03
       O  4.71568e-03 -2.64432e-03 -2.99808e-03
       H -4.32705e-03 -1.27511e-03  1.47401e-03
       H -5.90200e-04  4.08838e-03  2.16640e-03
       O  4.01837e-03  2.58176e-03  4.13618e-03
       H -8.08418e-04 -3.97629e-03 -2.36616e-03
       H -3.77652e-03  1.68482e-03 -1.47593e-03
       O -1.36007e-04  5.05298e-03  3.89191e-03
       H -3.46874e-03 -2.52451e-03 -1.52028e-03
       H  3.16982e-03 -2.62496e-03 -2.35514e-03
       O  4.43672e-03  2.98530e-03 -2.90750e-03
       H -1.31670e-03 -4.25831e-03  2.24762e-03
       H -3.81084e-03  1.88941e-03  1.43109e-03
       O  4.68249e-03  1.86811e-03  3.57069e-03
       H -3.77863e-03 -2.34140e-03  1.05993e-03
       H -1.27108e-03 -2.60877e-04 -4.70850e-03
       O  7.59932e-04  5.15446e-03 -3.32343e-03
       H -3.93160e-04 -4.82526e-03 -2.80104e-04
       H -5.64473e-05 -5.60447e-04  4.48250e-03
       O -3.72099e-03  3.44101e-03 -3.73793e-03
       H  3.67774e-03 -2.36458e-03 -7.91401e-04
       H  8.01762e-04 -1.03200e-03  4.58751e-03
       O -4.42503e-03  2.25166e-03 -4.05716e-03
       H  5.70325e-04 -4.28748e-03  1.39194e-03
       H  3.95020e-03  1.45856e-03  2.12120e-03
       O  1.14415e-04  5.04601e-03 -3.90467e-03
       H -3.20837e-03 -2.64105e-03  2.43070e-03
       H  3.50911e-03 -2.41577e-03  1.57354e-03
       O -4.74892e-03 -1.75736e-03 -3.70584e-03
       H  3.82069e-03  2.23919e-03 -1.04254e-03
       H  1.36435e-03  1.33770e-04  4.71953e-03
288
# CELL(abcABC):   25.55133    29.50414    27.81677    90.00000    90.00000    90.00000  Step:           2  Bead:       0 forces{atomic_unit}  cell{atomic_unit}
       O -2.55305e-03  1.89032e-03 -2.23702e-03
       H  2.95167e-03 -2.07642e-03 -9.94100e-04
       H  3.69638e-04 -3.01024e-05  3.78742e-03
       O -1.12546e-05 -3.44101e-03 -2.12462e-03
       H -2.96906e-03  1.72294e-03  1.40614e-03
       H  2.95021e-03  2.08538e-03  1.05542e-03
       O  3.15319e-03 -1.34558e-03 -2.09832e-03
       H -3.28160e-03 -1.14120e-03  1.67384e-03
       H  2.28237e-04  3.42093e-03  6.66766e-04
       O  2.62136e-03 -2.30063e-03 -2.18310e-03
       H -3.05304e-03  1.93362e-03 -8.86082e-04
       H  2.11883e-04  2.54166e-05  3.64743e-03
       O -3.13274e-03 -1.46119e-03  2.29243e-03
       H -3.00540e-04  3.53723e-03 -9.53246e-04
       H  3.28937e-03 -1.32944e-03 -1.48896e-03
       O -2.90893e-03  1.50111e-03 -2.31867e-03
       H -1.46996e-04 -3.50071e-03  1.46618e-03
       H  3.37642e-03  1.40886e-03  1.52115e-03
       O -3.04945e-04 -3.32918e-03  1.95761e-03
       H  7.75142e-05  4.00111e-03  4.53487e-04
       H  9.47536e-05 -2.25765e-04 -3.62920e-03
       O  2.67537e-03 -1.56643e-03 -2.54627e-03
       H -2.85988e-03  1.77465e-03 -1.49035e-03
       H -6.20743e-04  3.40064e-04  4.01070e-03
       O  2.59416e-03  1.94570e-03 -2.48205e-03
       H -2.91220e-03 -1.74148e-03 -1.33693e-03
       H -2.24177e-04 -5.14730e-04  3.82083e-03
       O  7.41097e-04  3.46888e-03  2.28001e-03
       H -3.60151e-04 -3.70993e-03  9.85252e-04
       H -2.96958e-05  2.13911e-04 -3.73661e-03
       O -2.89682e-03 -1.92978e-03 -1.96417e-03
       H  5.80817e-04  3.43778e-03  1.53189e-03
       H  2.91952e-03 -1.84525e-03  8.54426e-04
       O  1.91844e-06 -2.72902e-03  3.11133e-03
       H -2.99226e-03  1.81734e-03 -1.47889e-03
       H  3.04846e-03  1.82192e-03 -1.47987e-03
       O -2.95503e-03  1.70102e-03 -2.05311e-03
       H  3.41034e-03 -1.91524e-03 -6.12977e-04